 Entering Gaussian System, Link 0=g16
 Input=CIX_large_mk.gjf
 Output=CIX_large_mk.log
 Initial command:
 /opt/exp_soft/local/skylake/gaussian/g16/C.01/l1.exe "/mnt/storage_5/scratch/pl0251-02/35462425/Gau-23507.inp" -scrdir="/mnt/storage_5/scratch/pl0251-02/35462425/"
 Entering Link 1 = /opt/exp_soft/local/skylake/gaussian/g16/C.01/l1.exe PID=     23508.
  
 Copyright (c) 1988-2019, Gaussian, Inc.  All Rights Reserved.
  
 This is part of the Gaussian(R) 16 program.  It is based on
 the Gaussian(R) 09 system (copyright 2009, Gaussian, Inc.),
 the Gaussian(R) 03 system (copyright 2003, Gaussian, Inc.),
 the Gaussian(R) 98 system (copyright 1998, Gaussian, Inc.),
 the Gaussian(R) 94 system (copyright 1995, Gaussian, Inc.),
 the Gaussian 92(TM) system (copyright 1992, Gaussian, Inc.),
 the Gaussian 90(TM) system (copyright 1990, Gaussian, Inc.),
 the Gaussian 88(TM) system (copyright 1988, Gaussian, Inc.),
 the Gaussian 86(TM) system (copyright 1986, Carnegie Mellon
 University), and the Gaussian 82(TM) system (copyright 1983,
 Carnegie Mellon University). Gaussian is a federally registered
 trademark of Gaussian, Inc.
  
 This software contains proprietary and confidential information,
 including trade secrets, belonging to Gaussian, Inc.
  
 This software is provided under written license and may be
 used, copied, transmitted, or stored only in accord with that
 written license.
  
 The following legend is applicable only to US Government
 contracts under FAR:
  
                    RESTRICTED RIGHTS LEGEND
  
 Use, reproduction and disclosure by the US Government is
 subject to restrictions as set forth in subparagraphs (a)
 and (c) of the Commercial Computer Software - Restricted
 Rights clause in FAR 52.227-19.
  
 Gaussian, Inc.
 340 Quinnipiac St., Bldg. 40, Wallingford CT 06492
  
  
 ---------------------------------------------------------------
 Warning -- This program may not be used in any manner that
 competes with the business of Gaussian, Inc. or will provide
 assistance to any competitor of Gaussian, Inc.  The licensee
 of this program is prohibited from giving any competitor of
 Gaussian, Inc. access to this program.  By using this program,
 the user acknowledges that Gaussian, Inc. is engaged in the
 business of creating and licensing software in the field of
 computational chemistry and represents and warrants to the
 licensee that it is not a competitor of Gaussian, Inc. and that
 it will not use this program in any manner prohibited above.
 ---------------------------------------------------------------
  

 Cite this work as:
 Gaussian 16, Revision C.01,
 M. J. Frisch, G. W. Trucks, H. B. Schlegel, G. E. Scuseria, 
 M. A. Robb, J. R. Cheeseman, G. Scalmani, V. Barone, 
 G. A. Petersson, H. Nakatsuji, X. Li, M. Caricato, A. V. Marenich, 
 J. Bloino, B. G. Janesko, R. Gomperts, B. Mennucci, H. P. Hratchian, 
 J. V. Ortiz, A. F. Izmaylov, J. L. Sonnenberg, D. Williams-Young, 
 F. Ding, F. Lipparini, F. Egidi, J. Goings, B. Peng, A. Petrone, 
 T. Henderson, D. Ranasinghe, V. G. Zakrzewski, J. Gao, N. Rega, 
 G. Zheng, W. Liang, M. Hada, M. Ehara, K. Toyota, R. Fukuda, 
 J. Hasegawa, M. Ishida, T. Nakajima, Y. Honda, O. Kitao, H. Nakai, 
 T. Vreven, K. Throssell, J. A. Montgomery, Jr., J. E. Peralta, 
 F. Ogliaro, M. J. Bearpark, J. J. Heyd, E. N. Brothers, K. N. Kudin, 
 V. N. Staroverov, T. A. Keith, R. Kobayashi, J. Normand, 
 K. Raghavachari, A. P. Rendell, J. C. Burant, S. S. Iyengar, 
 J. Tomasi, M. Cossi, J. M. Millam, M. Klene, C. Adamo, R. Cammi, 
 J. W. Ochterski, R. L. Martin, K. Morokuma, O. Farkas, 
 J. B. Foresman, and D. J. Fox, Gaussian, Inc., Wallingford CT, 2019.
 
 ******************************************
 Gaussian 16:  ES64L-G16RevC.01  3-Jul-2019
                 1-Aug-2025 
 ******************************************
 %Chk=CIX_large_mk.chk
 %Mem=3000MB
 %NProcShared=48
 Will use up to   48 processors via shared memory.
 ----------------------------------------------------------------------
 # B3LYP/genecp Integral=(Grid=UltraFine) Opt Pop(MK,ReadRadii) IOp(6/3
 3=2,6/42=6)
 ----------------------------------------------------------------------
 1/18=20,19=15,26=4,38=1/1,3;
 2/9=110,12=2,17=6,18=5,40=1/2;
 3/5=7,11=2,16=1,17=8,25=1,30=1,71=1,74=-5,75=-5/1,2,3;
 4//1;
 5/5=2,38=5/2;
 6/7=2,8=2,9=2,10=2,15=8,20=101,28=1,33=2,42=6/1,2;
 7//1,2,3,16;
 1/18=20,19=15,26=4/3(2);
 2/9=110/2;
 99//99;
 2/9=110/2;
 3/5=7,6=1,11=2,16=1,17=8,25=1,30=1,71=1,74=-5,75=-5,82=7/1,2,3;
 4/5=5,16=3,69=1/1;
 5/5=2,38=5/2;
 7//1,2,3,16;
 1/18=20,19=15,26=4/3(-5);
 2/9=110/2;
 6/7=2,8=2,9=2,10=2,15=8,19=2,20=101,28=1,33=2,42=6/1,2;
 99/9=1/99;
 ---
 CLR
 ---
 Symbolic Z-matrix:
 Charge =  1 Multiplicity = 1
 Pt                   -1    0.363     0.126    -1.603 
 N                    -1   -1.08     -0.055    -0.19 
 C                    -1   -1.507     0.701     0.798 
 C                    -1   -2.994    -0.96      0.461 
 C                    -1   -2.734     0.139     1.254 
 O                    -1   -1.976    -1.097    -0.383 
 C                    -1   -4.107    -1.918     0.357 
 H                    0    -3.8      -2.789    -0.236 
 H                    0    -4.448    -2.226     1.354 
 H                    0    -4.946    -1.415    -0.153 
 C                    -1    1.298    -1.838     1.154 
 H                    0     2.036    -2.62      1.378 
 H                    0     0.651    -1.728     2.038 
 H                    0     0.689    -2.136     0.291 
 N                    -1   -3.573     0.644     2.285 
 O                    -1   -3.152     1.572     2.967 
 O                    -1   -4.675     0.125     2.435 
 N                    -1    1.751     0.187    -0.172 
 C                    -1    1.996    -0.558     0.887 
 C                    -1    3.321     1.27      0.965 
 C                    -1    3.003     0.11      1.642 
 O                    -1    2.56      1.316    -0.128 
 C                    -1    4.267     2.375     1.196 
 H                    0     4.08      2.824     2.184 
 H                    0     5.297     1.985     1.203 
 H                    0     4.159     3.133     0.41 
 C                    -1   -0.793     1.917     1.253 
 H                    0    -0.432     1.773     2.283 
 H                    0     0.054     2.146     0.596 
 H                    0    -1.491     2.766     1.261 
 N                    -1    3.586    -0.323     2.87 
 O                    -1    3.153    -1.347     3.383 
 O                    -1    4.488     0.36      3.343 
 Cl                   -1    1.986     0.336    -3.255 
 H                    0    -2.016     0.519    -2.641 
 O                    -1   -1.116     0.112    -3.037 
 H                    0    -1.336    -0.804    -3.283 
 

 GradGradGradGradGradGradGradGradGradGradGradGradGradGradGradGradGradGrad
 Berny optimization.
 Initialization pass.
                           ----------------------------
                           !    Initial Parameters    !
                           ! (Angstroms and Degrees)  !
 --------------------------                            --------------------------
 ! Name  Definition              Value          Derivative Info.                !
 --------------------------------------------------------------------------------
 ! X1    R(1,-1)                 0.363          Frozen                          !
 ! Y1    R(1,-2)                 0.126          Frozen                          !
 ! Z1    R(1,-3)                -1.603          Frozen                          !
 ! X2    R(2,-1)                -1.08           Frozen                          !
 ! Y2    R(2,-2)                -0.055          Frozen                          !
 ! Z2    R(2,-3)                -0.19           Frozen                          !
 ! X3    R(3,-1)                -1.507          Frozen                          !
 ! Y3    R(3,-2)                 0.701          Frozen                          !
 ! Z3    R(3,-3)                 0.798          Frozen                          !
 ! X4    R(4,-1)                -2.994          Frozen                          !
 ! Y4    R(4,-2)                -0.96           Frozen                          !
 ! Z4    R(4,-3)                 0.461          Frozen                          !
 ! X5    R(5,-1)                -2.734          Frozen                          !
 ! Y5    R(5,-2)                 0.139          Frozen                          !
 ! Z5    R(5,-3)                 1.254          Frozen                          !
 ! X6    R(6,-1)                -1.976          Frozen                          !
 ! Y6    R(6,-2)                -1.097          Frozen                          !
 ! Z6    R(6,-3)                -0.383          Frozen                          !
 ! X7    R(7,-1)                -4.107          Frozen                          !
 ! Y7    R(7,-2)                -1.918          Frozen                          !
 ! Z7    R(7,-3)                 0.357          Frozen                          !
 ! X11   R(11,-1)                1.298          Frozen                          !
 ! Y11   R(11,-2)               -1.838          Frozen                          !
 ! Z11   R(11,-3)                1.154          Frozen                          !
 ! X15   R(15,-1)               -3.573          Frozen                          !
 ! Y15   R(15,-2)                0.644          Frozen                          !
 ! Z15   R(15,-3)                2.285          Frozen                          !
 ! X16   R(16,-1)               -3.152          Frozen                          !
 ! Y16   R(16,-2)                1.572          Frozen                          !
 ! Z16   R(16,-3)                2.967          Frozen                          !
 ! X17   R(17,-1)               -4.675          Frozen                          !
 ! Y17   R(17,-2)                0.125          Frozen                          !
 ! Z17   R(17,-3)                2.435          Frozen                          !
 ! X18   R(18,-1)                1.751          Frozen                          !
 ! Y18   R(18,-2)                0.187          Frozen                          !
 ! Z18   R(18,-3)               -0.172          Frozen                          !
 ! X19   R(19,-1)                1.996          Frozen                          !
 ! Y19   R(19,-2)               -0.558          Frozen                          !
 ! Z19   R(19,-3)                0.887          Frozen                          !
 ! X20   R(20,-1)                3.321          Frozen                          !
 ! Y20   R(20,-2)                1.27           Frozen                          !
 ! Z20   R(20,-3)                0.965          Frozen                          !
 ! X21   R(21,-1)                3.003          Frozen                          !
 ! Y21   R(21,-2)                0.11           Frozen                          !
 ! Z21   R(21,-3)                1.642          Frozen                          !
 ! X22   R(22,-1)                2.56           Frozen                          !
 ! Y22   R(22,-2)                1.316          Frozen                          !
 ! Z22   R(22,-3)               -0.128          Frozen                          !
 ! X23   R(23,-1)                4.267          Frozen                          !
 ! Y23   R(23,-2)                2.375          Frozen                          !
 ! Z23   R(23,-3)                1.196          Frozen                          !
 ! X27   R(27,-1)               -0.793          Frozen                          !
 ! Y27   R(27,-2)                1.917          Frozen                          !
 ! Z27   R(27,-3)                1.253          Frozen                          !
 ! X31   R(31,-1)                3.586          Frozen                          !
 ! Y31   R(31,-2)               -0.323          Frozen                          !
 ! Z31   R(31,-3)                2.87           Frozen                          !
 ! X32   R(32,-1)                3.153          Frozen                          !
 ! Y32   R(32,-2)               -1.347          Frozen                          !
 ! Z32   R(32,-3)                3.383          Frozen                          !
 ! X33   R(33,-1)                4.488          Frozen                          !
 ! Y33   R(33,-2)                0.36           Frozen                          !
 ! Z33   R(33,-3)                3.343          Frozen                          !
 ! X34   R(34,-1)                1.986          Frozen                          !
 ! Y34   R(34,-2)                0.336          Frozen                          !
 ! Z34   R(34,-3)               -3.255          Frozen                          !
 ! X36   R(36,-1)               -1.116          Frozen                          !
 ! Y36   R(36,-2)                0.112          Frozen                          !
 ! Z36   R(36,-3)               -3.037          Frozen                          !
 ! R1    R(7,8)                  1.0975         estimate D2E/DX2                !
 ! R2    R(7,9)                  1.0978         estimate D2E/DX2                !
 ! R3    R(7,10)                 1.1032         estimate D2E/DX2                !
 ! R4    R(11,12)                1.0983         estimate D2E/DX2                !
 ! R5    R(11,13)                1.101          estimate D2E/DX2                !
 ! R6    R(11,14)                1.0975         estimate D2E/DX2                !
 ! R7    R(23,24)                1.1012         estimate D2E/DX2                !
 ! R8    R(23,25)                1.1014         estimate D2E/DX2                !
 ! R9    R(23,26)                1.0973         estimate D2E/DX2                !
 ! R10   R(27,28)                1.1009         estimate D2E/DX2                !
 ! R11   R(27,29)                1.0961         estimate D2E/DX2                !
 ! R12   R(27,30)                1.0991         estimate D2E/DX2                !
 ! R13   R(35,36)                1.0642         estimate D2E/DX2                !
 ! R14   R(36,37)                0.9736         estimate D2E/DX2                !
 ! A1    A(4,7,8)              110.0672         estimate D2E/DX2                !
 ! A2    A(4,7,9)              110.6862         estimate D2E/DX2                !
 ! A3    A(4,7,10)             108.1149         estimate D2E/DX2                !
 ! A4    A(8,7,9)              110.7893         estimate D2E/DX2                !
 ! A5    A(8,7,10)             108.9534         estimate D2E/DX2                !
 ! A6    A(9,7,10)             108.1519         estimate D2E/DX2                !
 ! A7    A(12,11,13)           107.5925         estimate D2E/DX2                !
 ! A8    A(12,11,14)           109.8709         estimate D2E/DX2                !
 ! A9    A(12,11,19)           109.5831         estimate D2E/DX2                !
 ! A10   A(13,11,14)           109.415          estimate D2E/DX2                !
 ! A11   A(13,11,19)           109.5784         estimate D2E/DX2                !
 ! A12   A(14,11,19)           110.7419         estimate D2E/DX2                !
 ! A13   A(20,23,24)           109.7269         estimate D2E/DX2                !
 ! A14   A(20,23,25)           109.6331         estimate D2E/DX2                !
 ! A15   A(20,23,26)           110.0417         estimate D2E/DX2                !
 ! A16   A(24,23,25)           107.3061         estimate D2E/DX2                !
 ! A17   A(24,23,26)           110.1386         estimate D2E/DX2                !
 ! A18   A(25,23,26)           109.9506         estimate D2E/DX2                !
 ! A19   A(3,27,28)            109.7533         estimate D2E/DX2                !
 ! A20   A(3,27,29)            111.0848         estimate D2E/DX2                !
 ! A21   A(3,27,30)            109.2769         estimate D2E/DX2                !
 ! A22   A(28,27,29)           109.5559         estimate D2E/DX2                !
 ! A23   A(28,27,30)           107.6061         estimate D2E/DX2                !
 ! A24   A(29,27,30)           109.4938         estimate D2E/DX2                !
 ! A25   A(1,36,35)            110.2151         estimate D2E/DX2                !
 ! A26   A(1,36,37)            110.1505         estimate D2E/DX2                !
 ! A27   A(35,36,37)           105.2326         estimate D2E/DX2                !
 ! D1    D(19,18,36,35)         77.2062         estimate D2E/DX2                !
 ! D2    D(19,18,36,37)        -38.2489         estimate D2E/DX2                !
 ! D3    D(22,18,36,35)        -91.5279         estimate D2E/DX2                !
 ! D4    D(22,18,36,37)        153.0169         estimate D2E/DX2                !
 ! D5    D(2,1,36,35)           29.3222         estimate D2E/DX2                !
 ! D6    D(2,1,36,37)          -86.3587         estimate D2E/DX2                !
 ! D7    D(34,1,36,35)        -150.6118         estimate D2E/DX2                !
 ! D8    D(34,1,36,37)          93.7073         estimate D2E/DX2                !
 ! D9    D(2,3,27,28)         -115.2727         estimate D2E/DX2                !
 ! D10   D(2,3,27,29)            6.0347         estimate D2E/DX2                !
 ! D11   D(2,3,27,30)          126.9481         estimate D2E/DX2                !
 ! D12   D(5,3,27,28)           66.7649         estimate D2E/DX2                !
 ! D13   D(5,3,27,29)         -171.9277         estimate D2E/DX2                !
 ! D14   D(5,3,27,30)          -51.0143         estimate D2E/DX2                !
 ! D15   D(5,4,7,8)           -165.8216         estimate D2E/DX2                !
 ! D16   D(5,4,7,9)            -43.0121         estimate D2E/DX2                !
 ! D17   D(5,4,7,10)            75.2755         estimate D2E/DX2                !
 ! D18   D(6,4,7,8)             15.7912         estimate D2E/DX2                !
 ! D19   D(6,4,7,9)            138.6007         estimate D2E/DX2                !
 ! D20   D(6,4,7,10)          -103.1117         estimate D2E/DX2                !
 ! D21   D(12,11,19,18)        130.0883         estimate D2E/DX2                !
 ! D22   D(12,11,19,21)        -49.9804         estimate D2E/DX2                !
 ! D23   D(13,11,19,18)       -112.0711         estimate D2E/DX2                !
 ! D24   D(13,11,19,21)         67.8602         estimate D2E/DX2                !
 ! D25   D(14,11,19,18)          8.7226         estimate D2E/DX2                !
 ! D26   D(14,11,19,21)       -171.3462         estimate D2E/DX2                !
 ! D27   D(21,20,23,24)        -56.1811         estimate D2E/DX2                !
 ! D28   D(21,20,23,25)         61.4288         estimate D2E/DX2                !
 ! D29   D(21,20,23,26)       -177.523          estimate D2E/DX2                !
 ! D30   D(22,20,23,24)        124.1314         estimate D2E/DX2                !
 ! D31   D(22,20,23,25)       -118.2587         estimate D2E/DX2                !
 ! D32   D(22,20,23,26)          2.7895         estimate D2E/DX2                !
 --------------------------------------------------------------------------------
 Trust Radius=3.00D-01 FncErr=1.00D-07 GrdErr=1.00D-06 EigMax=2.50D+02 EigMin=1.00D-04
 Number of steps in this run=    152 maximum allowed number of steps=    222.
 GradGradGradGradGradGradGradGradGradGradGradGradGradGradGradGradGradGrad

                          Input orientation:                          
 ---------------------------------------------------------------------
 Center     Atomic      Atomic             Coordinates (Angstroms)
 Number     Number       Type             X           Y           Z
 ---------------------------------------------------------------------
      1         78           0        0.363000    0.126000   -1.603000
      2          7           0       -1.080000   -0.055000   -0.190000
      3          6           0       -1.507000    0.701000    0.798000
      4          6           0       -2.994000   -0.960000    0.461000
      5          6           0       -2.734000    0.139000    1.254000
      6          8           0       -1.976000   -1.097000   -0.383000
      7          6           0       -4.107000   -1.918000    0.357000
      8          1           0       -3.800000   -2.789000   -0.236000
      9          1           0       -4.448000   -2.226000    1.354000
     10          1           0       -4.946000   -1.415000   -0.153000
     11          6           0        1.298000   -1.838000    1.154000
     12          1           0        2.036000   -2.620000    1.378000
     13          1           0        0.651000   -1.728000    2.038000
     14          1           0        0.689000   -2.136000    0.291000
     15          7           0       -3.573000    0.644000    2.285000
     16          8           0       -3.152000    1.572000    2.967000
     17          8           0       -4.675000    0.125000    2.435000
     18          7           0        1.751000    0.187000   -0.172000
     19          6           0        1.996000   -0.558000    0.887000
     20          6           0        3.321000    1.270000    0.965000
     21          6           0        3.003000    0.110000    1.642000
     22          8           0        2.560000    1.316000   -0.128000
     23          6           0        4.267000    2.375000    1.196000
     24          1           0        4.080000    2.824000    2.184000
     25          1           0        5.297000    1.985000    1.203000
     26          1           0        4.159000    3.133000    0.410000
     27          6           0       -0.793000    1.917000    1.253000
     28          1           0       -0.432000    1.773000    2.283000
     29          1           0        0.054000    2.146000    0.596000
     30          1           0       -1.491000    2.766000    1.261000
     31          7           0        3.586000   -0.323000    2.870000
     32          8           0        3.153000   -1.347000    3.383000
     33          8           0        4.488000    0.360000    3.343000
     34         17           0        1.986000    0.336000   -3.255000
     35          1           0       -2.016000    0.519000   -2.641000
     36          8           0       -1.116000    0.112000   -3.037000
     37          1           0       -1.336000   -0.804000   -3.283000
 ---------------------------------------------------------------------
                    Distance matrix (angstroms):
                    1          2          3          4          5
     1  Pt   0.000000
     2  N    2.027703   0.000000
     3  C    3.097148   1.315298   0.000000
     4  C    4.087657   2.214999   2.254697   0.000000
     5  C    4.213553   2.204198   1.424538   1.379946   0.000000
     6  O    2.907757   1.387742   2.201710   1.329447   2.186785
     7  C    5.291544   3.596207   3.716671   1.472192   2.630777
     8  H    5.262745   3.856847   4.301988   2.116763   3.453931
     9  H    6.117309   4.294252   4.186400   2.124693   2.922503
    10  H    5.715126   4.098405   4.148322   2.096265   3.047541
    11  C    3.511776   3.261949   3.800169   4.435358   4.491720
    12  H    4.384724   4.329816   4.890633   5.375629   5.511838
    13  H    4.095991   3.280133   3.477730   4.045093   3.944435
    14  H    2.968191   2.773316   3.623263   3.869931   4.221365
    15  N    5.556704   3.581798   2.546129   2.497005   1.421938
    16  O    5.943992   4.111808   2.858186   3.565953   2.272132
    17  O    6.456538   4.455003   3.612170   2.810634   2.272100
    18  N    1.994499   2.841382   3.437973   4.922532   4.706485
    19  C    3.055265   3.297683   3.723441   5.024259   4.795143
    20  C    4.080824   4.739035   4.864281   6.716111   6.166499
    21  C    4.183286   4.478207   4.626199   6.205133   5.750179
    22  O    2.901471   3.890127   4.216182   6.031087   5.596578
    23  C    5.304113   6.034592   6.024928   8.024000   7.349630
    24  H    5.952870   6.367897   6.135364   8.205417   7.382731
    25  H    5.972761   6.838726   6.935928   8.829738   8.240587
    26  H    5.244410   6.162018   6.178084   8.241399   7.562395
    27  C    3.563812   2.460366   1.481714   3.707937   2.632255
    28  H    4.294838   3.142804   2.123684   4.165671   3.004663
    29  H    3.001913   2.597721   2.136715   4.353822   3.497707
    30  H    4.313863   3.198806   2.116329   4.096594   2.906239
    31  N    5.531461   5.586321   5.592889   7.036011   6.539671
    32  O    5.900341   5.688047   5.708952   6.817145   6.434097
    33  O    6.444633   6.607340   6.521758   8.125801   7.521306
    34  Cl   2.325367   4.352868   5.362936   6.347336   6.530566
    35  H    2.625173   2.685698   3.481225   3.573000   3.978813
    36  O    2.060095   2.852121   3.899619   4.112429   4.585993
    37  H    2.563962   3.192677   4.353025   4.097662   4.840250
                    6          7          8          9         10
     6  O    0.000000
     7  C    2.400584   0.000000
     8  H    2.492278   1.097515   0.000000
     9  H    3.225305   1.097795   1.806924   0.000000
    10  H    2.995818   1.103191   1.791112   1.782351   0.000000
    11  C    3.691954   5.464031   5.368995   5.762557   6.393334
    12  H    4.638620   6.266713   6.057430   6.496004   7.248745
    13  H    3.627745   5.049795   5.109618   5.168719   6.018709
    14  H    2.938711   4.801406   4.566756   5.246603   5.698263
    15  N    3.563666   3.250567   4.265262   3.141542   3.473968
    16  O    4.441738   4.461415   5.449535   4.325065   4.677072
    17  O    4.088888   2.968932   4.048612   2.597555   3.023704
    18  N    3.947620   6.247162   6.298752   6.824870   6.885969
    19  C    4.204784   6.275118   6.311268   6.672739   7.071592
    20  C    5.956341   8.106059   8.284113   8.528229   8.763700
    21  C    5.508894   7.504406   7.629672   7.813913   8.290612
    22  O    5.144209   7.425825   7.570488   7.990879   7.987429
    23  C    7.315947   9.447626   9.684731   9.856236  10.053023
    24  H    7.657602   9.635946   9.972791   9.945762  10.242039
    25  H    8.056715  10.216866  10.373871  10.616984  10.877398
    26  H    7.493996   9.687217   9.941483  10.182852  10.193248
    27  C    3.627696   5.147100   5.779758   5.525728   5.506947
    28  H    4.210510   5.553250   6.204888   5.743109   6.039341
    29  H    3.949227   5.821266   6.316626   6.321151   6.183989
    30  H    4.226196   5.440637   6.199235   5.802806   5.605103
    31  N    6.489756   8.248724   8.383400   8.394333   9.117347
    32  O    6.368037   7.886084   7.969990   7.916103   8.837518
    33  O    7.601922   9.379739   9.561192   9.512918  10.216310
    34  Cl   5.098953   7.433149   7.235868   8.318839   7.793653
    35  H    2.776980   4.393092   4.462011   5.423069   4.302952
    36  O    3.040559   4.958449   4.844095   5.987433   5.031708
    37  H    2.984200   4.708401   4.392691   5.762673   4.816879
                   11         12         13         14         15
    11  C    0.000000
    12  H    1.098337   0.000000
    13  H    1.100984   1.774680   0.000000
    14  H    1.097476   1.797285   1.794413   0.000000
    15  N    5.582663   6.552650   4.850729   5.465261   0.000000
    16  O    5.892162   6.856612   5.120142   5.971894   1.226193
    17  O    6.416468   7.327332   5.653096   6.203334   1.227300
    18  N    2.462541   3.219157   3.124312   2.595870   5.881384
    19  C    1.482192   2.120029   2.121963   2.133905   5.866257
    20  C    3.713208   4.117511   4.155506   4.356895   7.047092
    21  C    2.634364   2.908210   3.011140   3.496329   6.628905
    22  O    3.630962   4.246729   4.195447   3.948735   6.624790
    23  C    5.154231   5.473619   5.533446   5.828399   8.102338
    24  H    5.525818   5.870665   5.700882   6.299518   7.958078
    25  H    5.532606   5.645420   6.005740   6.248844   9.035812
    26  H    5.783571   6.208153   6.211744   6.310105   8.336340
    27  C    4.299082   5.348199   3.998423   4.421377   3.227066
    28  H    4.160152   5.119424   3.672862   4.528243   3.337743
    29  H    4.210838   5.220594   4.176559   4.339559   4.273623
    30  H    5.383938   6.439131   5.038644   5.451872   3.144230
    31  N    3.236483   3.147185   3.358642   4.281451   7.247661
    32  O    2.941181   2.624546   2.866041   4.031660   7.099913
    33  O    4.449610   4.330581   4.559094   5.475137   8.135093
    34  Cl   4.963759   5.495919   5.835938   4.512993   7.854231
    35  H    5.562380   6.513400   5.835661   4.791938   5.167722
    36  O    5.214823   6.073809   5.680098   4.403080   5.885878
    37  H    5.262517   6.032674   5.754562   4.318371   6.172803
                   16         17         18         19         20
    16  O    0.000000
    17  O    2.167109   0.000000
    18  N    5.984226   6.934967   0.000000
    19  C    5.946865   6.882226   1.317775   0.000000
    20  C    6.782252   8.210234   2.220486   2.259047   0.000000
    21  C    6.463520   7.718857   2.205454   1.424885   1.380237
    22  O    6.501654   7.767411   1.389625   2.204585   1.332624
    23  C    7.669603   9.303601   3.604029   3.722286   1.472855
    24  H    7.381221   9.165022   4.234235   4.178898   2.115882
    25  H    8.641057  10.218523   4.206845   4.178912   2.114816
    26  H    7.900993   9.549254   3.849169   4.304600   2.116846
    27  C    2.936273   4.436024   3.390496   3.746746   4.174512
    28  H    2.811878   4.554345   3.648001   3.643839   4.009382
    29  H    4.028592   5.461667   2.703204   3.341805   3.402474
    30  H    2.663643   4.300118   4.383525   4.831979   5.047868
    31  N    7.000077   8.284567   3.589023   2.552570   2.497378
    32  O    6.960362   8.021413   4.117862   2.862025   3.567021
    33  O    7.744670   9.210877   4.458287   3.617281   2.800870
    34  Cl   8.163334   8.762964   3.095531   4.237393   4.523603
    35  H    5.817987   5.743805   4.516246   5.450033   6.484659
    36  O    6.505760   6.527590   4.053830   5.052843   6.086373
    37  H    6.928617   6.686366   4.493325   5.343373   6.635859
                   21         22         23         24         25
    21  C    0.000000
    22  O    2.187141   0.000000
    23  C    2.631888   2.405890   0.000000
    24  H    2.969762   3.151160   1.101233   0.000000
    25  H    2.995126   3.116134   1.101385   1.774083   0.000000
    26  H    3.463046   2.479462   1.097280   1.802442   1.800499
    27  C    4.222107   3.675727   5.081005   5.043366   6.090585
    28  H    3.869842   3.869604   4.860512   4.633848   5.833763
    29  H    3.733097   2.737355   4.261668   4.380651   5.280475
    30  H    5.234074   4.521330   5.771626   5.647241   6.833028
    31  N    1.426661   3.567492   3.247344   3.258564   3.321637
    32  O    2.275177   4.446385   4.458391   4.437812   4.522318
    33  O    2.271811   4.083988   2.952740   2.753369   2.806191
    34  Cl   5.006593   3.326861   5.401100   6.337010   5.792727
    35  H    6.610728   5.281113   7.592325   8.108937   8.390796
    36  O    6.233715   4.839925   7.212222   7.849344   7.912793
    37  H    6.627061   5.443091   7.846088   8.507851   8.479352
                   26         27         28         29         30
    26  H    0.000000
    27  C    5.168327   0.000000
    28  H    5.141499   1.100889   0.000000
    29  H    4.226084   1.096129   1.794796   0.000000
    30  H    5.725503   1.099122   1.775391   1.792666   0.000000
    31  N    4.280638   5.177637   4.569695   4.872583   6.156844
    32  O    5.470024   5.546306   4.878178   5.438034   6.556401
    33  O    4.049723   5.889084   5.227482   5.513271   6.772887
    34  Cl   5.096799   5.526705   6.211372   4.673214   6.195860
    35  H    7.366968   4.314321   5.322344   4.172553   4.533237
    36  O    6.988124   4.665453   5.615085   4.324898   5.065288
    37  H    7.702807   5.317329   6.199879   5.067666   5.780732
                   31         32         33         34         35
    31  N    0.000000
    32  O    1.224432   0.000000
    33  O    1.226304   2.167412   0.000000
    34  Cl   6.364739   6.946756   7.056499   0.000000
    35  H    7.903321   8.154084   8.839432   4.052961   0.000000
    36  O    7.562452   7.846620   8.495335   3.117708   1.064173
    37  H    7.894102   8.054907   8.898188   3.512274   1.620152
                   36         37
    36  O    0.000000
    37  H    0.973639   0.000000
 Stoichiometry    C10H14ClN4O7Pt(1+)
 Framework group  C1[X(C10H14ClN4O7Pt)]
 Deg. of freedom   105
 Full point group                 C1      NOp   1
 Largest Abelian subgroup         C1      NOp   1
 Largest concise Abelian subgroup C1      NOp   1
                         Standard orientation:                         
 ---------------------------------------------------------------------
 Center     Atomic      Atomic             Coordinates (Angstroms)
 Number     Number       Type             X           Y           Z
 ---------------------------------------------------------------------
      1         78           0        0.066863   -1.557787   -0.006928
      2          7           0       -1.371561   -0.130027    0.056429
      3          6           0       -1.709381    0.877527   -0.718633
      4          6           0       -3.359849    0.528277    0.777240
      5          6           0       -2.981752    1.338543   -0.273835
      6          8           0       -2.370100   -0.331191    0.998917
      7          6           0       -4.564831    0.420472    1.616136
      8          1           0       -4.353686   -0.192821    2.501477
      9          1           0       -4.924270    1.415762    1.908292
     10          1           0       -5.354346   -0.069075    1.021123
     11          6           0        0.829050    1.149259    2.096294
     12          1           0        1.486842    1.348894    2.952915
     13          1           0        0.206101    2.043433    1.939599
     14          1           0        0.183747    0.288673    2.314080
     15          7           0       -3.754286    2.389631   -0.839798
     16          8           0       -3.234468    3.083617   -1.706817
     17          8           0       -4.901298    2.543934   -0.431364
     18          7           0        1.469440   -0.143860    0.100835
     19          6           0        1.649596    0.897599    0.887880
     20          6           0        3.152916    0.993165   -0.795625
     21          6           0        2.726974    1.652103    0.339905
     22          8           0        2.388576   -0.088889   -0.939946
     23          6           0        4.207962    1.232869   -1.794985
     24          1           0        4.077953    2.231521   -2.240525
     25          1           0        5.193409    1.219231   -1.303295
     26          1           0        4.168383    0.462823   -2.575681
     27          6           0       -0.871509    1.346260   -1.847232
     28          1           0       -0.515672    2.368619   -1.646933
     29          1           0       -0.012941    0.682876   -2.003059
     30          1           0       -1.480226    1.379318   -2.761803
     31          7           0        3.276684    2.864080    0.853999
     32          8           0        2.748261    3.363117    1.839374
     33          8           0        4.248046    3.338293    0.274860
     34         17           0        1.684681   -3.226251   -0.085840
     35          1           0       -2.271553   -2.557472   -0.658063
     36          8           0       -1.421539   -2.972654   -0.170657
     37          1           0       -1.735436   -3.233112    0.713426
 ---------------------------------------------------------------------
 Rotational constants (GHZ):           0.2127102           0.1562100           0.1054638
 General basis read from cards:  (5D, 7F)
 ======================================================================================================
                                       Pseudopotential Parameters
 ======================================================================================================
  Center     Atomic      Valence      Angular      Power
  Number     Number     Electrons     Momentum     of R      Exponent        Coefficient   SO-Coeffient
 ======================================================================================================
    1         78           18
                                      H and up 
                                                     2        1.0000000        0.00000000    0.00000000
                                      S - H
                                                     2       13.4286510      579.22386100    0.00000000
                                                     2        6.7143260       29.66949100    0.00000000
                                      P - H
                                                     2       10.3659440      280.86077400    0.00000000
                                                     2        5.1829720       26.74538200    0.00000000
                                      D - H
                                                     2        7.6004790      120.39644400    0.00000000
                                                     2        3.8002400       15.81092100    0.00000000
                                      F - H
                                                     2        3.3095690       24.31437600    0.00000000
                                      G - H
                                                     2        5.2772890      -24.21867500    0.00000000
    2          7
                                   No pseudopotential on this center.
    3          6
                                   No pseudopotential on this center.
    4          6
                                   No pseudopotential on this center.
    5          6
                                   No pseudopotential on this center.
    6          8
                                   No pseudopotential on this center.
    7          6
                                   No pseudopotential on this center.
    8          1
                                   No pseudopotential on this center.
    9          1
                                   No pseudopotential on this center.
   10          1
                                   No pseudopotential on this center.
   11          6
                                   No pseudopotential on this center.
   12          1
                                   No pseudopotential on this center.
   13          1
                                   No pseudopotential on this center.
   14          1
                                   No pseudopotential on this center.
   15          7
                                   No pseudopotential on this center.
   16          8
                                   No pseudopotential on this center.
   17          8
                                   No pseudopotential on this center.
   18          7
                                   No pseudopotential on this center.
   19          6
                                   No pseudopotential on this center.
   20          6
                                   No pseudopotential on this center.
   21          6
                                   No pseudopotential on this center.
   22          8
                                   No pseudopotential on this center.
   23          6
                                   No pseudopotential on this center.
   24          1
                                   No pseudopotential on this center.
   25          1
                                   No pseudopotential on this center.
   26          1
                                   No pseudopotential on this center.
   27          6
                                   No pseudopotential on this center.
   28          1
                                   No pseudopotential on this center.
   29          1
                                   No pseudopotential on this center.
   30          1
                                   No pseudopotential on this center.
   31          7
                                   No pseudopotential on this center.
   32          8
                                   No pseudopotential on this center.
   33          8
                                   No pseudopotential on this center.
   34         17
                                   No pseudopotential on this center.
   35          1
                                   No pseudopotential on this center.
   36          8
                                   No pseudopotential on this center.
   37          1
                                   No pseudopotential on this center.
 ======================================================================================================
 There are   401 symmetry adapted cartesian basis functions of A   symmetry.
 There are   376 symmetry adapted basis functions of A   symmetry.
   376 basis functions,   761 primitive gaussians,   401 cartesian basis functions
    96 alpha electrons       96 beta electrons
       nuclear repulsion energy      2495.6222709224 Hartrees.
 NAtoms=   37 NActive=   37 NUniq=   37 SFac= 1.00D+00 NAtFMM=   60 NAOKFM=F Big=F
 Integral buffers will be    131072 words long.
 Raffenetti 2 integral format.
 Two-electron integral symmetry is turned on.
 One-electron integrals computed using PRISM.
   1 Symmetry operations used in ECPInt.
 ECPInt:  NShTT=    8646 NPrTT=   53439 LenC2=    7539 LenP2D=   26529.
 LDataN:  DoStor=T MaxTD1= 7 Len=  274
 Number of processors reduced to  27 by ecpmxn.
 NBasis=   376 RedAO= T EigKep=  6.84D-04  NBF=   376
 NBsUse=   376 1.00D-06 EigRej= -1.00D+00 NBFU=   376
 Defaulting to unpruned grid for atomic number  78.
 ExpMin= 1.50D-02 ExpMax= 2.52D+04 ExpMxC= 3.78D+03 IAcc=3 IRadAn=         5 AccDes= 0.00D+00
 Harris functional with IExCor=  402 and IRadAn=       5 diagonalized for initial guess.
 HarFok:  IExCor=  402 AccDes= 0.00D+00 IRadAn=         5 IDoV= 1 UseB2=F ITyADJ=14
 ICtDFT=  3500011 ScaDFX=  1.000000  1.000000  1.000000  1.000000
 Defaulting to unpruned grid for atomic number  78.
 FoFCou: FMM=F IPFlag=           0 FMFlag=      100000 FMFlg1=           0
         NFxFlg=           0 DoJE=T BraDBF=F KetDBF=T FulRan=T
         wScrn=  0.000000 ICntrl=       500 IOpCl=  0 I1Cent=   200000004 NGrid=           0
         NMat0=    1 NMatS0=      1 NMatT0=    0 NMatD0=    1 NMtDS0=    0 NMtDT0=    0
 Petite list used in FoFCou.
 Requested convergence on RMS density matrix=1.00D-08 within 128 cycles.
 Requested convergence on MAX density matrix=1.00D-06.
 Requested convergence on             energy=1.00D-06.
 No special actions if energy rises.
 Defaulting to unpruned grid for atomic number  78.
 Defaulting to unpruned grid for atomic number  78.
 Defaulting to unpruned grid for atomic number  78.
 Defaulting to unpruned grid for atomic number  78.
 Defaulting to unpruned grid for atomic number  78.
 Defaulting to unpruned grid for atomic number  78.
 Defaulting to unpruned grid for atomic number  78.
 Defaulting to unpruned grid for atomic number  78.
 Defaulting to unpruned grid for atomic number  78.
 Defaulting to unpruned grid for atomic number  78.
 Defaulting to unpruned grid for atomic number  78.
 Defaulting to unpruned grid for atomic number  78.
 Defaulting to unpruned grid for atomic number  78.
 Defaulting to unpruned grid for atomic number  78.
 Defaulting to unpruned grid for atomic number  78.
 Defaulting to unpruned grid for atomic number  78.
 Defaulting to unpruned grid for atomic number  78.
 Defaulting to unpruned grid for atomic number  78.
 Defaulting to unpruned grid for atomic number  78.
 Defaulting to unpruned grid for atomic number  78.
 Defaulting to unpruned grid for atomic number  78.
 Defaulting to unpruned grid for atomic number  78.
 Defaulting to unpruned grid for atomic number  78.
 Defaulting to unpruned grid for atomic number  78.
 Defaulting to unpruned grid for atomic number  78.
 Defaulting to unpruned grid for atomic number  78.
 Defaulting to unpruned grid for atomic number  78.
 Defaulting to unpruned grid for atomic number  78.
 Defaulting to unpruned grid for atomic number  78.
 Defaulting to unpruned grid for atomic number  78.
 Defaulting to unpruned grid for atomic number  78.
 Defaulting to unpruned grid for atomic number  78.
 Defaulting to unpruned grid for atomic number  78.
 Defaulting to unpruned grid for atomic number  78.
 Defaulting to unpruned grid for atomic number  78.
 Defaulting to unpruned grid for atomic number  78.
 Defaulting to unpruned grid for atomic number  78.
 Defaulting to unpruned grid for atomic number  78.
 Defaulting to unpruned grid for atomic number  78.
 Defaulting to unpruned grid for atomic number  78.
 Defaulting to unpruned grid for atomic number  78.
 Defaulting to unpruned grid for atomic number  78.
 Defaulting to unpruned grid for atomic number  78.
 Defaulting to unpruned grid for atomic number  78.
 Defaulting to unpruned grid for atomic number  78.
 Defaulting to unpruned grid for atomic number  78.
 Defaulting to unpruned grid for atomic number  78.
 Defaulting to unpruned grid for atomic number  78.
 EnCoef did     3 forward-backward iterations
 EnCoef did   100 forward-backward iterations
 EnCoef did     4 forward-backward iterations
 EnCoef did     4 forward-backward iterations
 Restarting incremental Fock formation.
 SCF Done:  E(RB3LYP) =  -1714.17279169     A.U. after   21 cycles
            NFock= 21  Conv=0.48D-08     -V/T= 2.0534
 SCF density gives NOpUse=  1 NOpAll=  1.

 **********************************************************************

            Population analysis using the SCF Density.

 **********************************************************************

 Orbital symmetries:
 BldTbl:  Degeneracy threshold= 1.00D-02
       Occupied  (A) (A) (A) (A) (A) (A) (A) (A) (A) (A) (A) (A)
                 (A) (A) (A) (A) (A) (A) (A) (A) (A) (A) (A) (A)
                 (A) (A) (A) (A) (A) (A) (A) (A) (A) (A) (A) (A)
                 (A) (A) (A) (A) (A) (A) (A) (A) (A) (A) (A) (A)
                 (A) (A) (A) (A) (A) (A) (A) (A) (A) (A) (A) (A)
                 (A) (A) (A) (A) (A) (A) (A) (A) (A) (A) (A) (A)
                 (A) (A) (A) (A) (A) (A) (A) (A) (A) (A) (A) (A)
                 (A) (A) (A) (A) (A) (A) (A) (A) (A) (A) (A) (A)
       Virtual   (A) (A) (A) (A) (A) (A) (A) (A) (A) (A) (A) (A)
                 (A) (A) (A) (A) (A) (A) (A) (A) (A) (A) (A) (A)
                 (A) (A) (A) (A) (A) (A) (A) (A) (A) (A) (A) (A)
                 (A) (A) (A) (A) (A) (A) (A) (A) (A) (A) (A) (A)
                 (A) (A) (A) (A) (A) (A) (A) (A) (A) (A) (A) (A)
                 (A) (A) (A) (A) (A) (A) (A) (A) (A) (A) (A) (A)
                 (A) (A) (A) (A) (A) (A) (A) (A) (A) (A) (A) (A)
                 (A) (A) (A) (A) (A) (A) (A) (A) (A) (A) (A) (A)
                 (A) (A) (A) (A) (A) (A) (A) (A) (A) (A) (A) (A)
                 (A) (A) (A) (A) (A) (A) (A) (A) (A) (A) (A) (A)
                 (A) (A) (A) (A) (A) (A) (A) (A) (A) (A) (A) (A)
                 (A) (A) (A) (A) (A) (A) (A) (A) (A) (A) (A) (A)
                 (A) (A) (A) (A) (A) (A) (A) (A) (A) (A) (A) (A)
                 (A) (A) (A) (A) (A) (A) (A) (A) (A) (A) (A) (A)
                 (A) (A) (A) (A) (A) (A) (A) (A) (A) (A) (A) (A)
                 (A) (A) (A) (A) (A) (A) (A) (A) (A) (A) (A) (A)
                 (A) (A) (A) (A) (A) (A) (A) (A) (A) (A) (A) (A)
                 (A) (A) (A) (A) (A) (A) (A) (A) (A) (A) (A) (A)
                 (A) (A) (A) (A) (A) (A) (A) (A) (A) (A) (A) (A)
                 (A) (A) (A) (A) (A) (A) (A) (A) (A) (A) (A) (A)
                 (A) (A) (A) (A) (A) (A) (A) (A) (A) (A) (A) (A)
                 (A) (A) (A) (A) (A) (A) (A) (A) (A) (A) (A) (A)
                 (A) (A) (A) (A) (A) (A) (A) (A) (A) (A) (A) (A)
                 (A) (A) (A) (A)
 The electronic state is 1-A.
 Alpha  occ. eigenvalues -- -101.59441 -19.43995 -19.42034 -19.39969 -19.31367
 Alpha  occ. eigenvalues --  -19.31295 -19.30165 -19.30083 -14.71379 -14.70182
 Alpha  occ. eigenvalues --  -14.61113 -14.60397 -10.46072 -10.44441 -10.43690
 Alpha  occ. eigenvalues --  -10.42451 -10.41004 -10.39451 -10.34799 -10.34792
 Alpha  occ. eigenvalues --  -10.33881 -10.32976  -9.52394  -7.28591  -7.27832
 Alpha  occ. eigenvalues --   -7.27794  -4.10956  -2.36956  -2.36270  -2.32026
 Alpha  occ. eigenvalues --   -1.37080  -1.36187  -1.35879  -1.34134  -1.23652
 Alpha  occ. eigenvalues --   -1.19158  -1.18069  -1.09752  -1.08150  -1.02564
 Alpha  occ. eigenvalues --   -1.00916  -0.92716  -0.91137  -0.90334  -0.88969
 Alpha  occ. eigenvalues --   -0.87783  -0.87045  -0.85614  -0.78521  -0.76938
 Alpha  occ. eigenvalues --   -0.75463  -0.74657  -0.74163  -0.69938  -0.69742
 Alpha  occ. eigenvalues --   -0.69124  -0.68048  -0.67215  -0.66792  -0.66375
 Alpha  occ. eigenvalues --   -0.65246  -0.64094  -0.64012  -0.62807  -0.61523
 Alpha  occ. eigenvalues --   -0.60005  -0.59701  -0.59489  -0.59041  -0.58297
 Alpha  occ. eigenvalues --   -0.57958  -0.57707  -0.57292  -0.56281  -0.56195
 Alpha  occ. eigenvalues --   -0.55621  -0.54721  -0.54583  -0.53053  -0.50900
 Alpha  occ. eigenvalues --   -0.48741  -0.46486  -0.46284  -0.45910  -0.44868
 Alpha  occ. eigenvalues --   -0.44547  -0.44235  -0.43887  -0.43397  -0.43105
 Alpha  occ. eigenvalues --   -0.42603  -0.41775  -0.41517  -0.40663  -0.37688
 Alpha  occ. eigenvalues --   -0.37094
 Alpha virt. eigenvalues --   -0.22514  -0.21125  -0.20969  -0.20372  -0.18817
 Alpha virt. eigenvalues --   -0.16898  -0.13229  -0.11194  -0.10351  -0.10022
 Alpha virt. eigenvalues --   -0.09021  -0.08861  -0.07189  -0.06239  -0.05018
 Alpha virt. eigenvalues --   -0.03904  -0.03784  -0.03191  -0.02336  -0.01655
 Alpha virt. eigenvalues --    0.00278   0.00694   0.01578   0.01809   0.02331
 Alpha virt. eigenvalues --    0.03037   0.03045   0.03653   0.04069   0.04159
 Alpha virt. eigenvalues --    0.05127   0.05717   0.05978   0.06589   0.07038
 Alpha virt. eigenvalues --    0.07573   0.08694   0.09156   0.10576   0.11148
 Alpha virt. eigenvalues --    0.11591   0.12605   0.13203   0.13716   0.15340
 Alpha virt. eigenvalues --    0.15945   0.16397   0.17443   0.19471   0.24045
 Alpha virt. eigenvalues --    0.24694   0.26520   0.27376   0.32558   0.33411
 Alpha virt. eigenvalues --    0.33965   0.34325   0.35806   0.36300   0.36872
 Alpha virt. eigenvalues --    0.37346   0.38074   0.39534   0.40050   0.41035
 Alpha virt. eigenvalues --    0.41778   0.42373   0.43423   0.44396   0.45302
 Alpha virt. eigenvalues --    0.46437   0.46594   0.47480   0.48423   0.49040
 Alpha virt. eigenvalues --    0.50141   0.50765   0.52117   0.52687   0.53589
 Alpha virt. eigenvalues --    0.54290   0.54764   0.54878   0.55617   0.57392
 Alpha virt. eigenvalues --    0.57752   0.59260   0.59737   0.60646   0.61086
 Alpha virt. eigenvalues --    0.62352   0.64576   0.65792   0.66105   0.66408
 Alpha virt. eigenvalues --    0.67488   0.67940   0.68193   0.68985   0.69642
 Alpha virt. eigenvalues --    0.70272   0.71601   0.71726   0.72499   0.73141
 Alpha virt. eigenvalues --    0.74085   0.74482   0.75295   0.76541   0.76687
 Alpha virt. eigenvalues --    0.77586   0.78436   0.79004   0.79699   0.80631
 Alpha virt. eigenvalues --    0.81174   0.81678   0.82655   0.82712   0.83489
 Alpha virt. eigenvalues --    0.83579   0.84407   0.85143   0.85994   0.86399
 Alpha virt. eigenvalues --    0.87545   0.87956   0.88426   0.89247   0.89770
 Alpha virt. eigenvalues --    0.90251   0.90716   0.91243   0.92950   0.93415
 Alpha virt. eigenvalues --    0.94264   0.95568   0.98219   0.99672   1.00196
 Alpha virt. eigenvalues --    1.00520   1.01169   1.03225   1.03839   1.05287
 Alpha virt. eigenvalues --    1.06612   1.08305   1.09696   1.10072   1.11735
 Alpha virt. eigenvalues --    1.14367   1.15530   1.17338   1.17392   1.17778
 Alpha virt. eigenvalues --    1.20119   1.20911   1.21691   1.23493   1.23809
 Alpha virt. eigenvalues --    1.26087   1.26333   1.27539   1.27919   1.29469
 Alpha virt. eigenvalues --    1.30535   1.30991   1.35693   1.36458   1.38046
 Alpha virt. eigenvalues --    1.40866   1.42648   1.45016   1.46235   1.47009
 Alpha virt. eigenvalues --    1.48345   1.49927   1.53168   1.54053   1.55419
 Alpha virt. eigenvalues --    1.55616   1.56300   1.57404   1.58042   1.59656
 Alpha virt. eigenvalues --    1.63466   1.63698   1.65472   1.66991   1.67530
 Alpha virt. eigenvalues --    1.67539   1.68189   1.68478   1.68903   1.69101
 Alpha virt. eigenvalues --    1.70605   1.72297   1.73367   1.73759   1.75928
 Alpha virt. eigenvalues --    1.77490   1.78693   1.81892   1.82323   1.83441
 Alpha virt. eigenvalues --    1.83825   1.84376   1.85509   1.87115   1.87873
 Alpha virt. eigenvalues --    1.88986   1.90926   1.91797   1.95301   1.95912
 Alpha virt. eigenvalues --    1.96424   1.97100   1.97712   1.99422   2.00624
 Alpha virt. eigenvalues --    2.00769   2.01193   2.01990   2.05360   2.06272
 Alpha virt. eigenvalues --    2.06995   2.08720   2.09054   2.09989   2.11229
 Alpha virt. eigenvalues --    2.11348   2.12778   2.15533   2.17289   2.21600
 Alpha virt. eigenvalues --    2.22224   2.23132   2.23778   2.26636   2.27945
 Alpha virt. eigenvalues --    2.28787   2.29772   2.30652   2.32402   2.32742
 Alpha virt. eigenvalues --    2.37727   2.39291   2.40564   2.41965   2.44746
 Alpha virt. eigenvalues --    2.46488   2.47643   2.47974   2.54209   2.56543
 Alpha virt. eigenvalues --    2.58500   2.59120   2.65345   2.66189   2.69115
 Alpha virt. eigenvalues --    2.70325   2.71551   2.73453   2.74883   2.78513
 Alpha virt. eigenvalues --    2.79976   2.81958   2.83614   2.87168   2.88962
 Alpha virt. eigenvalues --    2.91927   2.93407   3.08552   3.09870   3.16662
 Alpha virt. eigenvalues --    3.17848  45.65095  45.91171  45.93562 114.13366
          Condensed to atoms (all electrons):
               1          2          3          4          5          6
     1  Pt  17.207529  -0.002826  -0.043103  -0.007732   0.006745   0.004003
     2  N   -0.002826   6.944387   0.409696  -0.103877  -0.002867   0.155767
     3  C   -0.043103   0.409696   4.768547  -0.047721   0.361418  -0.091417
     4  C   -0.007732  -0.103877  -0.047721   4.812020   0.399676   0.244426
     5  C    0.006745  -0.002867   0.361418   0.399676   5.240456  -0.009912
     6  O    0.004003   0.155767  -0.091417   0.244426  -0.009912   8.051237
     7  C   -0.000686   0.004231   0.005702   0.388674  -0.057527  -0.050884
     8  H    0.001817   0.000043  -0.000079  -0.023618   0.005766  -0.002131
     9  H   -0.000258  -0.000113   0.000238  -0.021343  -0.004701   0.001546
    10  H    0.000560   0.000002  -0.000095  -0.023631  -0.005048   0.000323
    11  C    0.013757  -0.001515  -0.000091   0.000001  -0.000140  -0.000262
    12  H    0.000820   0.000125   0.000012  -0.000004   0.000000   0.000001
    13  H    0.004814  -0.000034   0.000568   0.000166   0.000203  -0.000181
    14  H    0.012468  -0.001233  -0.000417   0.000131  -0.000113   0.000468
    15  N    0.000897   0.004871  -0.045067  -0.052865   0.177862   0.002442
    16  O    0.000010   0.000107  -0.016545   0.004627  -0.071434  -0.000030
    17  O    0.000078  -0.000035   0.004181  -0.014773  -0.075587   0.000008
    18  N    0.103693  -0.012807   0.001806  -0.000004   0.000060  -0.000010
    19  C   -0.030803  -0.001394   0.000499  -0.000033  -0.000054  -0.000086
    20  C   -0.004607   0.000043  -0.000066   0.000000   0.000000   0.000000
    21  C    0.003594  -0.000118  -0.000157   0.000001  -0.000001  -0.000001
    22  O   -0.008201  -0.000030   0.000015   0.000000  -0.000001  -0.000000
    23  C   -0.000792   0.000000  -0.000000  -0.000000   0.000000   0.000000
    24  H    0.000115  -0.000000   0.000000  -0.000000   0.000000  -0.000000
    25  H    0.000111   0.000000  -0.000000   0.000000  -0.000000  -0.000000
    26  H    0.001557  -0.000000   0.000000   0.000000  -0.000000  -0.000000
    27  C    0.010445  -0.051383   0.375114   0.007433  -0.053057   0.003547
    28  H    0.003418   0.000987  -0.020625  -0.000125  -0.004298  -0.000051
    29  H    0.009315  -0.005186  -0.022949   0.000066   0.004891  -0.000041
    30  H    0.001171   0.001755  -0.020383  -0.000004  -0.005441  -0.000043
    31  N    0.000854   0.000000   0.000001  -0.000000   0.000000   0.000000
    32  O    0.000218  -0.000000  -0.000000   0.000000  -0.000000  -0.000000
    33  O   -0.000082   0.000000   0.000000   0.000000   0.000000  -0.000000
    34  Cl   0.316356  -0.004609   0.000016  -0.000004   0.000003   0.000029
    35  H   -0.011228   0.000801  -0.000092  -0.000364  -0.000113   0.000972
    36  O    0.127953  -0.013898  -0.001195  -0.000198   0.000079  -0.000941
    37  H   -0.010438   0.000220  -0.000014  -0.000074   0.000001   0.000100
               7          8          9         10         11         12
     1  Pt  -0.000686   0.001817  -0.000258   0.000560   0.013757   0.000820
     2  N    0.004231   0.000043  -0.000113   0.000002  -0.001515   0.000125
     3  C    0.005702  -0.000079   0.000238  -0.000095  -0.000091   0.000012
     4  C    0.388674  -0.023618  -0.021343  -0.023631   0.000001  -0.000004
     5  C   -0.057527   0.005766  -0.004701  -0.005048  -0.000140   0.000000
     6  O   -0.050884  -0.002131   0.001546   0.000323  -0.000262   0.000001
     7  C    5.157647   0.349935   0.367281   0.364256   0.000001  -0.000000
     8  H    0.349935   0.495571  -0.018218  -0.022707  -0.000001   0.000000
     9  H    0.367281  -0.018218   0.443405  -0.018781  -0.000000   0.000000
    10  H    0.364256  -0.022707  -0.018781   0.471844  -0.000000  -0.000000
    11  C    0.000001  -0.000001  -0.000000  -0.000000   5.191735   0.361968
    12  H   -0.000000   0.000000   0.000000  -0.000000   0.361968   0.452188
    13  H   -0.000002  -0.000001  -0.000001   0.000000   0.358537  -0.021738
    14  H   -0.000002  -0.000005  -0.000001   0.000000   0.340690  -0.019704
    15  N   -0.005573  -0.000013   0.000110   0.000621   0.000000  -0.000000
    16  O    0.000062   0.000002   0.000009   0.000003   0.000000   0.000000
    17  O    0.005877   0.000436   0.005699   0.000546   0.000000   0.000000
    18  N    0.000000  -0.000000  -0.000000   0.000000  -0.052128   0.001744
    19  C   -0.000000   0.000000   0.000000  -0.000000   0.373817  -0.019189
    20  C    0.000000  -0.000000  -0.000000   0.000000   0.007278   0.000040
    21  C    0.000000  -0.000000   0.000000   0.000000  -0.051133  -0.004493
    22  O    0.000000   0.000000  -0.000000   0.000000   0.003526  -0.000050
    23  C    0.000000  -0.000000  -0.000000  -0.000000  -0.000097  -0.000000
    24  H   -0.000000  -0.000000  -0.000000  -0.000000   0.000000   0.000000
    25  H   -0.000000  -0.000000  -0.000000   0.000000   0.000001  -0.000001
    26  H    0.000000   0.000000  -0.000000   0.000000   0.000001  -0.000000
    27  C   -0.000096   0.000001  -0.000000   0.000002  -0.000125   0.000001
    28  H    0.000000  -0.000000  -0.000000   0.000000  -0.000005  -0.000002
    29  H    0.000001  -0.000000  -0.000000  -0.000000  -0.000002  -0.000001
    30  H   -0.000001  -0.000000   0.000000  -0.000001  -0.000001   0.000000
    31  N   -0.000000   0.000000   0.000000  -0.000000  -0.006538   0.000502
    32  O    0.000000   0.000000  -0.000000   0.000000   0.006099   0.004545
    33  O    0.000000   0.000000   0.000000   0.000000   0.000067   0.000001
    34  Cl   0.000000   0.000000  -0.000000  -0.000000  -0.000052   0.000002
    35  H    0.000011  -0.000010  -0.000000  -0.000001   0.000002  -0.000000
    36  O   -0.000005  -0.000004  -0.000000  -0.000001   0.000005   0.000000
    37  H   -0.000005  -0.000007  -0.000000   0.000000   0.000002   0.000000
              13         14         15         16         17         18
     1  Pt   0.004814   0.012468   0.000897   0.000010   0.000078   0.103693
     2  N   -0.000034  -0.001233   0.004871   0.000107  -0.000035  -0.012807
     3  C    0.000568  -0.000417  -0.045067  -0.016545   0.004181   0.001806
     4  C    0.000166   0.000131  -0.052865   0.004627  -0.014773  -0.000004
     5  C    0.000203  -0.000113   0.177862  -0.071434  -0.075587   0.000060
     6  O   -0.000181   0.000468   0.002442  -0.000030   0.000008  -0.000010
     7  C   -0.000002  -0.000002  -0.005573   0.000062   0.005877   0.000000
     8  H   -0.000001  -0.000005  -0.000013   0.000002   0.000436  -0.000000
     9  H   -0.000001  -0.000001   0.000110   0.000009   0.005699  -0.000000
    10  H    0.000000   0.000000   0.000621   0.000003   0.000546   0.000000
    11  C    0.358537   0.340690   0.000000   0.000000   0.000000  -0.052128
    12  H   -0.021738  -0.019704  -0.000000   0.000000   0.000000   0.001744
    13  H    0.492196  -0.026649  -0.000002  -0.000001   0.000000   0.000917
    14  H   -0.026649   0.492651  -0.000000  -0.000000   0.000000  -0.005043
    15  N   -0.000002  -0.000000   5.880108   0.337158   0.346919  -0.000000
    16  O   -0.000001  -0.000000   0.337158   8.179542  -0.091186  -0.000000
    17  O    0.000000   0.000000   0.346919  -0.091186   8.173765  -0.000000
    18  N    0.000917  -0.005043  -0.000000  -0.000000  -0.000000   6.753487
    19  C   -0.022482  -0.023403   0.000000   0.000000  -0.000000   0.409656
    20  C   -0.000163   0.000060   0.000000   0.000000   0.000000  -0.098402
    21  C   -0.004775   0.004870   0.000000  -0.000000  -0.000000  -0.003545
    22  O   -0.000038  -0.000033   0.000000  -0.000000  -0.000000   0.181023
    23  C    0.000000   0.000002   0.000000   0.000000   0.000000   0.004215
    24  H   -0.000000  -0.000000  -0.000000   0.000000   0.000000  -0.000060
    25  H    0.000000  -0.000000   0.000000   0.000000   0.000000  -0.000070
    26  H   -0.000000  -0.000000   0.000000   0.000000   0.000000   0.000033
    27  C   -0.000075  -0.000012  -0.006522   0.006372   0.000083  -0.001133
    28  H   -0.000039   0.000004   0.000688   0.001678   0.000006  -0.000176
    29  H    0.000020  -0.000002  -0.000033   0.000567   0.000002  -0.001333
    30  H   -0.000003  -0.000000   0.000765   0.003686  -0.000010   0.000084
    31  N    0.000784  -0.000033  -0.000000  -0.000000  -0.000000   0.004574
    32  O    0.001202   0.000555  -0.000000  -0.000000  -0.000000   0.000104
    33  O    0.000004   0.000002  -0.000000  -0.000000  -0.000000  -0.000025
    34  Cl  -0.000001   0.000043   0.000000  -0.000000  -0.000000  -0.002967
    35  H    0.000000   0.000004   0.000000  -0.000000  -0.000000   0.000084
    36  O    0.000000  -0.000048   0.000000  -0.000000  -0.000000  -0.001438
    37  H    0.000000   0.000005   0.000000   0.000000   0.000000   0.000097
              19         20         21         22         23         24
     1  Pt  -0.030803  -0.004607   0.003594  -0.008201  -0.000792   0.000115
     2  N   -0.001394   0.000043  -0.000118  -0.000030   0.000000  -0.000000
     3  C    0.000499  -0.000066  -0.000157   0.000015  -0.000000   0.000000
     4  C   -0.000033   0.000000   0.000001   0.000000  -0.000000  -0.000000
     5  C   -0.000054   0.000000  -0.000001  -0.000001   0.000000   0.000000
     6  O   -0.000086   0.000000  -0.000001  -0.000000   0.000000  -0.000000
     7  C   -0.000000   0.000000   0.000000   0.000000   0.000000  -0.000000
     8  H    0.000000  -0.000000  -0.000000   0.000000  -0.000000  -0.000000
     9  H    0.000000  -0.000000   0.000000  -0.000000  -0.000000  -0.000000
    10  H   -0.000000   0.000000   0.000000   0.000000  -0.000000  -0.000000
    11  C    0.373817   0.007278  -0.051133   0.003526  -0.000097   0.000000
    12  H   -0.019189   0.000040  -0.004493  -0.000050  -0.000000   0.000000
    13  H   -0.022482  -0.000163  -0.004775  -0.000038   0.000000  -0.000000
    14  H   -0.023403   0.000060   0.004870  -0.000033   0.000002  -0.000000
    15  N    0.000000   0.000000   0.000000   0.000000   0.000000  -0.000000
    16  O    0.000000   0.000000  -0.000000  -0.000000   0.000000   0.000000
    17  O   -0.000000   0.000000  -0.000000  -0.000000   0.000000   0.000000
    18  N    0.409656  -0.098402  -0.003545   0.181023   0.004215  -0.000060
    19  C    4.737076  -0.059896   0.372117  -0.083915   0.005554   0.000055
    20  C   -0.059896   4.780304   0.398409   0.253713   0.393727  -0.022166
    21  C    0.372117   0.398409   5.250769  -0.010101  -0.061025  -0.005407
    22  O   -0.083915   0.253713  -0.010101   7.990879  -0.049677   0.001172
    23  C    0.005554   0.393727  -0.061025  -0.049677   5.154784   0.364827
    24  H    0.000055  -0.022166  -0.005407   0.001172   0.364827   0.470608
    25  H    0.000032  -0.021693  -0.004419   0.000806   0.365886  -0.021002
    26  H   -0.000052  -0.021851   0.005857  -0.001955   0.349534  -0.020708
    27  C    0.000401   0.000159   0.000142  -0.001452   0.000005   0.000001
    28  H    0.000147   0.000210   0.000342  -0.000093  -0.000005  -0.000002
    29  H   -0.001410   0.000626  -0.000607   0.003501  -0.000014  -0.000011
    30  H    0.000026  -0.000008   0.000002   0.000002  -0.000000  -0.000000
    31  N   -0.044261  -0.050432   0.179857   0.002449  -0.005548   0.000596
    32  O   -0.016169   0.004416  -0.073013  -0.000030   0.000072   0.000003
    33  O    0.004301  -0.016983  -0.074106   0.000002   0.007479   0.002563
    34  Cl  -0.000557  -0.000030   0.000038  -0.002788  -0.000001   0.000000
    35  H   -0.000002   0.000000  -0.000000  -0.000000   0.000000  -0.000000
    36  O    0.000002  -0.000000  -0.000000   0.000007   0.000000  -0.000000
    37  H   -0.000007   0.000000  -0.000000   0.000000   0.000000   0.000000
              25         26         27         28         29         30
     1  Pt   0.000111   0.001557   0.010445   0.003418   0.009315   0.001171
     2  N    0.000000  -0.000000  -0.051383   0.000987  -0.005186   0.001755
     3  C   -0.000000   0.000000   0.375114  -0.020625  -0.022949  -0.020383
     4  C    0.000000   0.000000   0.007433  -0.000125   0.000066  -0.000004
     5  C   -0.000000  -0.000000  -0.053057  -0.004298   0.004891  -0.005441
     6  O   -0.000000  -0.000000   0.003547  -0.000051  -0.000041  -0.000043
     7  C   -0.000000   0.000000  -0.000096   0.000000   0.000001  -0.000001
     8  H   -0.000000   0.000000   0.000001  -0.000000  -0.000000  -0.000000
     9  H   -0.000000  -0.000000  -0.000000  -0.000000  -0.000000   0.000000
    10  H    0.000000   0.000000   0.000002   0.000000  -0.000000  -0.000001
    11  C    0.000001   0.000001  -0.000125  -0.000005  -0.000002  -0.000001
    12  H   -0.000001  -0.000000   0.000001  -0.000002  -0.000001   0.000000
    13  H    0.000000  -0.000000  -0.000075  -0.000039   0.000020  -0.000003
    14  H   -0.000000  -0.000000  -0.000012   0.000004  -0.000002  -0.000000
    15  N    0.000000   0.000000  -0.006522   0.000688  -0.000033   0.000765
    16  O    0.000000   0.000000   0.006372   0.001678   0.000567   0.003686
    17  O    0.000000   0.000000   0.000083   0.000006   0.000002  -0.000010
    18  N   -0.000070   0.000033  -0.001133  -0.000176  -0.001333   0.000084
    19  C    0.000032  -0.000052   0.000401   0.000147  -0.001410   0.000026
    20  C   -0.021693  -0.021851   0.000159   0.000210   0.000626  -0.000008
    21  C   -0.004419   0.005857   0.000142   0.000342  -0.000607   0.000002
    22  O    0.000806  -0.001955  -0.001452  -0.000093   0.003501   0.000002
    23  C    0.365886   0.349534   0.000005  -0.000005  -0.000014  -0.000000
    24  H   -0.021002  -0.020708   0.000001  -0.000002  -0.000011  -0.000000
    25  H    0.455308  -0.019152  -0.000000   0.000000   0.000001  -0.000000
    26  H   -0.019152   0.485995  -0.000003  -0.000000  -0.000006  -0.000000
    27  C   -0.000000  -0.000003   5.198296   0.360452   0.339378   0.362564
    28  H    0.000000  -0.000000   0.360452   0.473333  -0.024283  -0.021033
    29  H    0.000001  -0.000006   0.339378  -0.024283   0.490814  -0.021061
    30  H   -0.000000  -0.000000   0.362564  -0.021033  -0.021061   0.459138
    31  N    0.000418  -0.000013  -0.000003  -0.000009  -0.000002   0.000000
    32  O    0.000004   0.000001  -0.000000  -0.000001   0.000000  -0.000000
    33  O    0.002046   0.000450  -0.000000  -0.000000   0.000000   0.000000
    34  Cl   0.000000  -0.000015  -0.000014   0.000000  -0.000039   0.000000
    35  H    0.000000   0.000000  -0.000047   0.000001   0.000005  -0.000007
    36  O   -0.000000   0.000000  -0.000014  -0.000000  -0.000040  -0.000000
    37  H   -0.000000  -0.000000  -0.000000   0.000000   0.000001   0.000000
              31         32         33         34         35         36
     1  Pt   0.000854   0.000218  -0.000082   0.316356  -0.011228   0.127953
     2  N    0.000000  -0.000000   0.000000  -0.004609   0.000801  -0.013898
     3  C    0.000001  -0.000000   0.000000   0.000016  -0.000092  -0.001195
     4  C   -0.000000   0.000000   0.000000  -0.000004  -0.000364  -0.000198
     5  C    0.000000  -0.000000   0.000000   0.000003  -0.000113   0.000079
     6  O    0.000000  -0.000000  -0.000000   0.000029   0.000972  -0.000941
     7  C   -0.000000   0.000000   0.000000   0.000000   0.000011  -0.000005
     8  H    0.000000   0.000000   0.000000   0.000000  -0.000010  -0.000004
     9  H    0.000000  -0.000000   0.000000  -0.000000  -0.000000  -0.000000
    10  H   -0.000000   0.000000   0.000000  -0.000000  -0.000001  -0.000001
    11  C   -0.006538   0.006099   0.000067  -0.000052   0.000002   0.000005
    12  H    0.000502   0.004545   0.000001   0.000002  -0.000000   0.000000
    13  H    0.000784   0.001202   0.000004  -0.000001   0.000000   0.000000
    14  H   -0.000033   0.000555   0.000002   0.000043   0.000004  -0.000048
    15  N   -0.000000  -0.000000  -0.000000   0.000000   0.000000   0.000000
    16  O   -0.000000  -0.000000  -0.000000  -0.000000  -0.000000  -0.000000
    17  O   -0.000000  -0.000000  -0.000000  -0.000000  -0.000000  -0.000000
    18  N    0.004574   0.000104  -0.000025  -0.002967   0.000084  -0.001438
    19  C   -0.044261  -0.016169   0.004301  -0.000557  -0.000002   0.000002
    20  C   -0.050432   0.004416  -0.016983  -0.000030   0.000000  -0.000000
    21  C    0.179857  -0.073013  -0.074106   0.000038  -0.000000  -0.000000
    22  O    0.002449  -0.000030   0.000002  -0.002788  -0.000000   0.000007
    23  C   -0.005548   0.000072   0.007479  -0.000001   0.000000   0.000000
    24  H    0.000596   0.000003   0.002563   0.000000  -0.000000  -0.000000
    25  H    0.000418   0.000004   0.002046   0.000000   0.000000  -0.000000
    26  H   -0.000013   0.000001   0.000450  -0.000015   0.000000   0.000000
    27  C   -0.000003  -0.000000  -0.000000  -0.000014  -0.000047  -0.000014
    28  H   -0.000009  -0.000001  -0.000000   0.000000   0.000001  -0.000000
    29  H   -0.000002   0.000000   0.000000  -0.000039   0.000005  -0.000040
    30  H    0.000000  -0.000000   0.000000   0.000000  -0.000007  -0.000000
    31  N    5.867794   0.340183   0.346961   0.000000  -0.000000   0.000000
    32  O    0.340183   8.185356  -0.090660  -0.000000  -0.000000  -0.000000
    33  O    0.346961  -0.090660   8.175479  -0.000000   0.000000  -0.000000
    34  Cl   0.000000  -0.000000  -0.000000  16.836852   0.000461  -0.005612
    35  H   -0.000000  -0.000000   0.000000   0.000461   0.307996   0.225900
    36  O    0.000000  -0.000000  -0.000000  -0.005612   0.225900   8.153429
    37  H   -0.000000  -0.000000   0.000000   0.000142  -0.015202   0.228937
              37
     1  Pt  -0.010438
     2  N    0.000220
     3  C   -0.000014
     4  C   -0.000074
     5  C    0.000001
     6  O    0.000100
     7  C   -0.000005
     8  H   -0.000007
     9  H   -0.000000
    10  H    0.000000
    11  C    0.000002
    12  H    0.000000
    13  H    0.000000
    14  H    0.000005
    15  N    0.000000
    16  O    0.000000
    17  O    0.000000
    18  N    0.000097
    19  C   -0.000007
    20  C    0.000000
    21  C   -0.000000
    22  O    0.000000
    23  C    0.000000
    24  H    0.000000
    25  H   -0.000000
    26  H   -0.000000
    27  C   -0.000000
    28  H    0.000000
    29  H    0.000001
    30  H    0.000000
    31  N   -0.000000
    32  O   -0.000000
    33  O    0.000000
    34  Cl   0.000142
    35  H   -0.015202
    36  O    0.228937
    37  H    0.280518
 Mulliken charges:
               1
     1  Pt   0.288456
     2  N   -0.321113
     3  C    0.382202
     4  C    0.439147
     5  C    0.093134
     6  O   -0.308877
     7  C   -0.528900
     8  H    0.213225
     9  H    0.245129
    10  H    0.232108
    11  C   -0.545397
    12  H    0.243233
    13  H    0.216775
    14  H    0.224746
    15  N    0.357633
    16  O   -0.354626
    17  O   -0.356008
    18  N   -0.282439
    19  C    0.400030
    20  C    0.457311
    21  C    0.076900
    22  O   -0.278728
    23  C   -0.528923
    24  H    0.229417
    25  H    0.241723
    26  H    0.220327
    27  C   -0.550461
    28  H    0.229482
    29  H    0.227834
    30  H    0.238801
    31  N    0.361866
    32  O   -0.362886
    33  O   -0.357498
    34  Cl  -0.137256
    35  H    0.490828
    36  O   -0.712918
    37  H    0.515725
 Sum of Mulliken charges =   1.00000
 Mulliken charges with hydrogens summed into heavy atoms:
               1
     1  Pt   0.288456
     2  N   -0.321113
     3  C    0.382202
     4  C    0.439147
     5  C    0.093134
     6  O   -0.308877
     7  C    0.161562
    11  C    0.139357
    15  N    0.357633
    16  O   -0.354626
    17  O   -0.356008
    18  N   -0.282439
    19  C    0.400030
    20  C    0.457311
    21  C    0.076900
    22  O   -0.278728
    23  C    0.162544
    27  C    0.145655
    31  N    0.361866
    32  O   -0.362886
    33  O   -0.357498
    34  Cl  -0.137256
    36  O    0.293635
 DipInt: DoE/N= T F RetVal/Mat= T F Init=T NMatP=  1 IDeriv=0 Min/MaxMlt=  0  4
 Entering OneElI...
 OneElI was handed   392804094 working-precision words.
 Multipole integrals L=0 to 4 MinM= 0 MaxM= 0.
 Requested accuracy = 0.1000D-12
 ShPair: Thresh= 1.00D-13 NBox=     0 BxSize= 0.00D+00 RnKept= 2.06D+01
         NSMCal=                 8646 NSMKep=                6934
 PrmmSu-InSpLW:  IPartL=    0 NPrtUS=    1 NPrtUL=    1 DoSpLW=F IThBeg=    0 IThEnd=    0 NThAct=    1.
 PrSmSu:  IncTry=   512 NBBP=           6934 NTPThr=   100 NPartT=    1 Incr=          69 LDynOK=F GPUOK=F.
 PrsmSu:  NPrtUS=   1 ThrOK=F IAlg=2 LenDen=           0 ISkipM=0 DoSpLW=F IThBeg=    0 IThEnd=    0.
 Prism:   IPart=     0 DynPar=F LinDyn=F Incr=          69.
 PRISM was handed   392204579 working-precision words and  6934 shell-pairs
 IPart=  0 NShTot=        6934 NBatch=         113 AvBLen=        61.4
 PrsmSu-ThDecC:  IPartSL=    0    0 NPrtUSL=    1    1 IThBeg=    0 IThEnd=    0 CPU=   -1 GPU=   -1 NThAct=    1.
 PrSmSu:  NxtVal=             70.
 Electronic moments (au):
       -192.00000000          5.22687500       -176.69318241         -0.62424183
      -5376.66272684      -3015.50268208       -937.61485820         -5.96607412
        -14.88698909         -1.38268288       5296.38808564      -3436.90129763
       -178.83773796      -2812.13683896     -15096.59742222        497.35123517
        -93.01852810      -2445.09345059         -1.58909004      -2703.91814707
    -288458.02629436     -96102.17897528     -13192.69240829       5079.53811686
      16061.87973494      -5233.59166441      -3551.54694882       1007.20868802
        -81.61834122     -93600.03682989     -29047.25567387     -13006.86142841
       5147.33668642     -16695.07223925      -1852.45677400
 Electronic spatial extent (au):  <R**2>=           9329.7803
 DipInt: DoE/N= F T RetVal/Mat= T F Init=T NMatP=  1 IDeriv=0 Min/MaxMlt=  0  4
 Nuclear    moments (au):
        193.00000000         -7.58115934        176.62749696          0.78547880
       5295.02500095       2893.74478275        834.46360807         22.31735330
          0.09924733         -2.31228590      -5322.93054449       3127.12290530
        175.84027873       2729.07927493      14924.70041922       -487.69739108
         90.21402153       2372.50393504          8.39288593       2651.18166067
     272443.30727374      85548.17141458      10287.97927376      -4492.46344571
     -17121.40986366       5470.92935435       3357.70998962      -1104.54272507
         51.84549405      88413.37185958      26014.80623291      10769.13628792
      -5146.23733400      16335.67272793       1940.36555441
 Total      moments (au):
          1.00000000         -2.35428434         -0.06568546          0.16123697
        -81.63772590       -121.75789932       -103.15125013         16.35127919
        -14.78774176         -3.69496879        -26.54245885       -309.77839234
         -2.99745924        -83.05756403       -171.89700300          9.65384409
         -2.80450658        -72.58951555          6.80379590        -52.73648640
     -16014.71902062     -10554.00756070      -2904.71313453        587.07467115
      -1059.53012873        237.33768993       -193.83695920        -97.33403705
        -29.77284717      -5186.66497032      -3032.44944096      -2237.72514049
          1.09935243       -359.39951131         87.90878041
 Traceless Quadrup. (au):
         20.54456589        -19.57560754         -0.96895835         16.35127919
        -14.78774176         -3.69496879
 Charge=              1.0000 electrons
 Dipole moment (field-independent basis, Debye):
    X=             -5.9840    Y=             -0.1670    Z=              0.4098  Tot=              6.0003
 Quadrupole moment (field-independent basis, Debye-Ang):
   XX=           -109.8055   YY=           -163.7685   ZZ=           -138.7420
   XY=             21.9930   XZ=            -19.8900   YZ=             -4.9699
 Traceless Quadrupole moment (field-independent basis, Debye-Ang):
   XX=             27.6331   YY=            -26.3299   ZZ=             -1.3033
   XY=             21.9930   XZ=            -19.8900   YZ=             -4.9699
 Octapole moment (field-independent basis, Debye-Ang**2):
  XXX=            -18.8919  YYY=           -220.4883  ZZZ=             -2.1335  XYY=            -59.1172
  XXY=           -122.3497  XXZ=              6.8712  XZZ=             -1.9961  YZZ=            -51.6664
  YYZ=              4.8427  XYZ=            -37.5358
 Hexadecapole moment (field-independent basis, Debye-Ang**3):
 XXXX=          -6031.9111 YYYY=          -3975.1453 ZZZZ=          -1094.0543 XXXY=            221.1205
 XXXZ=           -399.0699 YYYX=             89.3928 YYYZ=            -73.0083 ZZZX=            -36.6607
 ZZZY=            -11.2139 XXYY=          -1953.5467 XXZZ=          -1142.1659 YYZZ=           -842.8346
 XXYZ=              0.4141 YYXZ=           -135.3671 ZZXY=             33.1107
 N-N= 2.495622270922D+03 E-N=-8.960946017887D+03  KE= 1.627333732354D+03
 Entering OneElI...
 OneElI was handed   392902782 working-precision words.
 Calculate electrostatic properties
    NBasis =   376  MinDer = 0  MaxDer = 0
    NGrid  =    37  NMatD  =   1
 Requested accuracy = 0.1000D-12
 ShPair: Thresh= 1.00D-13 NBox=     0 BxSize= 0.00D+00 RnKept= 1.79D+01
         NSMCal=                 8646 NSMKep=                5902
 PrmmSu-InSpLW:  IPartL=    0 NPrtUS=   48 NPrtUL=    1 DoSpLW=F IThBeg=    0 IThEnd=   47 NThAct=   48.
 PrSmSu:  IncTry=   512 NBBP=         218374 NTPThr=   100 NPartT=   48 Incr=          45 LDynOK=F GPUOK=F.
 PrsmSu:  NPrtUS=  48 ThrOK=T IAlg=2 LenDen=           0 ISkipM=0 DoSpLW=F IThBeg=    0 IThEnd=   47.
 Prism:   IPart=     0 DynPar=F LinDyn=F Incr=          45.
 PRISM was handed     8015208 working-precision words and  5902 shell-pairs
 PRISM was handed     8015208 working-precision words and  5902 shell-pairs
 PRISM was handed     8015208 working-precision words and  5902 shell-pairs
 PRISM was handed     8015208 working-precision words and  5902 shell-pairs
 PRISM was handed     8015208 working-precision words and  5902 shell-pairs
 PRISM was handed     8015208 working-precision words and  5902 shell-pairs
 PRISM was handed     8015208 working-precision words and  5902 shell-pairs
[...]
 **** Fit       0.101123
 **** Fit       0.092701
 **** Fit       0.084867
 **** Fit       0.078223
 **** Fit       0.072932
 **** Fit       0.068940
 **** Fit       0.066113
 **** Fit       0.064305
 **** Fit       0.063396
 **** Fit       0.063319
 **** Fit       0.064060
 **** Fit       0.065656
 **** Fit       0.067243
 **** Fit       0.070665
 **** Fit       0.075078
 **** Fit       0.080532
 **** Fit       0.086999
 **** Fit       0.094333
 **** Fit       0.109469
 **** Fit       0.098976
 **** Fit       0.089667
 **** Fit       0.081911
 **** Fit       0.075700
 **** Fit       0.070886
 **** Fit       0.067281
 **** Fit       0.064697
 **** Fit       0.062977
 **** Fit       0.061999
 **** Fit       0.061689
 **** Fit       0.062021
 **** Fit       0.063013
 **** Fit       0.064725
 **** Fit       0.066634
 **** Fit       0.070045
 **** Fit       0.074436
 **** Fit       0.079900
 **** Fit       0.086484
 **** Fit       0.094156
 **** Fit       0.099074
 **** Fit       0.089128
 **** Fit       0.081199
 **** Fit       0.074993
 **** Fit       0.070226
 **** Fit       0.066649
 **** Fit       0.064049
 **** Fit       0.062254
 **** Fit       0.061133
 **** Fit       0.060599
 **** Fit       0.060609
 **** Fit       0.061163
 **** Fit       0.062299
 **** Fit       0.064090
 **** Fit       0.066307
 **** Fit       0.069687
 **** Fit       0.074026
 **** Fit       0.079446
 **** Fit       0.086043
 **** Fit       0.093861
 **** Fit       0.111011
 **** Fit       0.098247
 **** Fit       0.088250
 **** Fit       0.080441
 **** Fit       0.074384
 **** Fit       0.069741
 **** Fit       0.066240
 **** Fit       0.063663
 **** Fit       0.061836
 **** Fit       0.060626
 **** Fit       0.059942
 **** Fit       0.059728
 **** Fit       0.059967
 **** Fit       0.060679
 **** Fit       0.061916
 **** Fit       0.063757
 **** Fit       0.066217
 **** Fit       0.069557
 **** Fit       0.073828
 **** Fit       0.079171
 **** Fit       0.085722
 **** Fit       0.093588
 **** Fit       0.109287
 **** Fit       0.096840
 **** Fit       0.087195
 **** Fit       0.079694
 **** Fit       0.073880
 **** Fit       0.069409
 **** Fit       0.066015
 **** Fit       0.063485
 **** Fit       0.061654
 **** Fit       0.060392
 **** Fit       0.059606
 **** Fit       0.059235
 **** Fit       0.059253
 **** Fit       0.059660
 **** Fit       0.060488
 **** Fit       0.061798
 **** Fit       0.063672
 **** Fit       0.066320
 **** Fit       0.069767
 **** Fit       0.074195
 **** Fit       0.079778
 **** Fit       0.086701
 **** Fit       0.095147
 **** Fit       0.103126
 **** Fit       0.091891
 **** Fit       0.083222
 **** Fit       0.076529
 **** Fit       0.071384
 **** Fit       0.067462
 **** Fit       0.064514
 **** Fit       0.062341
 **** Fit       0.060791
 **** Fit       0.059747
 **** Fit       0.059130
 **** Fit       0.058889
 **** Fit       0.059006
 **** Fit       0.059492
 **** Fit       0.060387
 **** Fit       0.061758
 **** Fit       0.063697
 **** Fit       0.066571
 **** Fit       0.070095
 **** Fit       0.074633
 **** Fit       0.080386
 **** Fit       0.087585
 **** Fit       0.096498
 **** Fit       0.109837
 **** Fit       0.097021
 **** Fit       0.087170
 **** Fit       0.079577
 **** Fit       0.073735
 **** Fit       0.069264
 **** Fit       0.065875
 **** Fit       0.063344
 **** Fit       0.061496
 **** Fit       0.060195
 **** Fit       0.059343
 **** Fit       0.058872
 **** Fit       0.058744
 **** Fit       0.058949
 **** Fit       0.059508
 **** Fit       0.060465
 **** Fit       0.061892
 **** Fit       0.063886
 **** Fit       0.066924
 **** Fit       0.070568
 **** Fit       0.075278
 **** Fit       0.081286
 **** Fit       0.088872
 **** Fit       0.107074
 **** Fit       0.094777
 **** Fit       0.085365
 **** Fit       0.078147
 **** Fit       0.072620
 **** Fit       0.068412
 **** Fit       0.065238
 **** Fit       0.062881
 **** Fit       0.061171
 **** Fit       0.059981
 **** Fit       0.059216
 **** Fit       0.058815
 **** Fit       0.058744
 **** Fit       0.059000
 **** Fit       0.059606
 **** Fit       0.060611
 **** Fit       0.062092
 **** Fit       0.064152
 **** Fit       0.067339
 **** Fit       0.071053
 **** Fit       0.075850
 **** Fit       0.081974
 **** Fit       0.089727
 **** Fit       0.103851
 **** Fit       0.092298
 **** Fit       0.083490
 **** Fit       0.076751
 **** Fit       0.071602
 **** Fit       0.067688
 **** Fit       0.064742
 **** Fit       0.062559
 **** Fit       0.060983
 **** Fit       0.059896
 **** Fit       0.059212
 **** Fit       0.058876
 **** Fit       0.058860
 **** Fit       0.059165
 **** Fit       0.059816
 **** Fit       0.060867
 **** Fit       0.062396
 **** Fit       0.064509
 **** Fit       0.067780
 **** Fit       0.071665
 **** Fit       0.076703
 **** Fit       0.083153
 **** Fit       0.096401
 **** Fit       0.086417
 **** Fit       0.078865
 **** Fit       0.073139
 **** Fit       0.068808
 **** Fit       0.065561
 **** Fit       0.063161
 **** Fit       0.061429
 **** Fit       0.060232
 **** Fit       0.059472
 **** Fit       0.059086
 **** Fit       0.059041
 **** Fit       0.059334
 **** Fit       0.059991
 **** Fit       0.061066
 **** Fit       0.062642
 **** Fit       0.064832
 **** Fit       0.068221
 **** Fit       0.072205
 **** Fit       0.077364
 **** Fit       0.083940
 **** Fit       0.100464
 **** Fit       0.089390
 **** Fit       0.081082
 **** Fit       0.074809
 **** Fit       0.070077
 **** Fit       0.066529
 **** Fit       0.063904
 **** Fit       0.062006
 **** Fit       0.060688
 **** Fit       0.059842
 **** Fit       0.059398
 **** Fit       0.059318
 **** Fit       0.059595
 **** Fit       0.060252
 **** Fit       0.061344
 **** Fit       0.062954
 **** Fit       0.065197
 **** Fit       0.068646
 **** Fit       0.072737
 **** Fit       0.078025
 **** Fit       0.084724
 **** Fit       0.095688
 **** Fit       0.085755
 **** Fit       0.078300
 **** Fit       0.072690
 **** Fit       0.068484
 **** Fit       0.065367
 **** Fit       0.063100
 **** Fit       0.061509
 **** Fit       0.060465
 **** Fit       0.059880
 **** Fit       0.059702
 **** Fit       0.059917
 **** Fit       0.060541
 **** Fit       0.061626
 **** Fit       0.063255
 **** Fit       0.065545
 **** Fit       0.069050
 **** Fit       0.073154
 **** Fit       0.078428
 **** Fit       0.085028
 **** Fit       0.102149
 **** Fit       0.090772
 **** Fit       0.082188
 **** Fit       0.075696
 **** Fit       0.070804
 **** Fit       0.067154
 **** Fit       0.064478
 **** Fit       0.062575
 **** Fit       0.061298
 **** Fit       0.060543
 **** Fit       0.060245
 **** Fit       0.060379
 **** Fit       0.060952
 **** Fit       0.062011
 **** Fit       0.063634
 **** Fit       0.065932
 **** Fit       0.069439
 **** Fit       0.073662
 **** Fit       0.079082
 **** Fit       0.085784
 **** Fit       0.092083
 **** Fit       0.083163
 **** Fit       0.076385
 **** Fit       0.071289
 **** Fit       0.067515
 **** Fit       0.064788
 **** Fit       0.062899
 **** Fit       0.061695
 **** Fit       0.061072
 **** Fit       0.060975
 **** Fit       0.061393
 **** Fit       0.062357
 **** Fit       0.063939
 **** Fit       0.066252
 **** Fit       0.069832
 **** Fit       0.074067
 **** Fit       0.079452
 **** Fit       0.085936
 **** Fit       0.092717
 **** Fit       0.083865
 **** Fit       0.077006
 **** Fit       0.071813
 **** Fit       0.067979
 **** Fit       0.065248
 **** Fit       0.063414
 **** Fit       0.062329
 **** Fit       0.061899
 **** Fit       0.062083
 **** Fit       0.062890
 **** Fit       0.064378
 **** Fit       0.066649
 **** Fit       0.070267
 **** Fit       0.074382
 **** Fit       0.079515
 **** Fit       0.085418
 **** Fit       0.114161
 **** Fit       0.115359
 **** Fit       0.102194
 **** Fit       0.092530
 **** Fit       0.084230
 **** Fit       0.077545
 **** Fit       0.072394
 **** Fit       0.068584
 **** Fit       0.065908
 **** Fit       0.064186
 **** Fit       0.063285
 **** Fit       0.063129
 **** Fit       0.063696
 **** Fit       0.065019
 **** Fit       0.067175
 **** Fit       0.070810
 **** Fit       0.074818
 **** Fit       0.079698
 **** Fit       0.084974
 **** Fit       0.106463
 **** Fit       0.107053
 **** Fit       0.108127
 **** Fit       0.109843
 **** Fit       0.111414
 **** Fit       0.102175
 **** Fit       0.094439
 **** Fit       0.086650
 **** Fit       0.079805
 **** Fit       0.074295
 **** Fit       0.070157
 **** Fit       0.067274
 **** Fit       0.065497
 **** Fit       0.064703
 **** Fit       0.064823
 **** Fit       0.065849
 **** Fit       0.067825
 **** Fit       0.071554
 **** Fit       0.075359
 **** Fit       0.079870
 **** Fit       0.084472
 **** Fit       0.097578
 **** Fit       0.099296
 **** Fit       0.100320
 **** Fit       0.101161
 **** Fit       0.101812
 **** Fit       0.101492
 **** Fit       0.099167
 **** Fit       0.094517
 **** Fit       0.088361
 **** Fit       0.081990
 **** Fit       0.076381
 **** Fit       0.071997
 **** Fit       0.068943
 **** Fit       0.067162
 **** Fit       0.066569
 **** Fit       0.067109
 **** Fit       0.068772
 **** Fit       0.072615
 **** Fit       0.076363
 **** Fit       0.080707
 **** Fit       0.084890
 **** Fit       0.088475
 **** Fit       0.091338
 **** Fit       0.093294
 **** Fit       0.094356
 **** Fit       0.094619
 **** Fit       0.093628
 **** Fit       0.090670
 **** Fit       0.085833
 **** Fit       0.080251
 **** Fit       0.075222
 **** Fit       0.071526
 **** Fit       0.069433
 **** Fit       0.068961
 **** Fit       0.070056
 **** Fit       0.074124
 **** Fit       0.077881
 **** Fit       0.082096
 **** Fit       0.085669
 **** Fit       0.087974
 **** Fit       0.088699
 **** Fit       0.087504
 **** Fit       0.084032
 **** Fit       0.079131
 **** Fit       0.074695
 **** Fit       0.072150
 **** Fit       0.071997
 **** Fit       0.076216
 **** Fit       0.080150
 **** Fit       0.083235
 **** Fit       0.082729
 **** Fit       0.078706
 **** Fit       0.075342
 **** Fit       0.079031
 **** Fit       0.125231
 **** Fit       0.123200
 **** Fit       0.126388
 **** Fit       0.128209
 **** Fit       0.126885
 **** Fit       0.124220
 **** Fit       0.122434
 **** Fit       0.120589
 **** Fit       0.123849
 **** Fit       0.127704
 **** Fit       0.130343
 **** Fit       0.131243
 **** Fit       0.130449
 **** Fit       0.128279
 **** Fit       0.125694
 **** Fit       0.123357
 **** Fit       0.121392
 **** Fit       0.119876
 **** Fit       0.119320
 **** Fit       0.117111
 **** Fit       0.120363
 **** Fit       0.124866
 **** Fit       0.129219
 **** Fit       0.133693
 **** Fit       0.131980
 **** Fit       0.129437
 **** Fit       0.126843
 **** Fit       0.124576
 **** Fit       0.122655
 **** Fit       0.120932
 **** Fit       0.119253
 **** Fit       0.117602
 **** Fit       0.116245
 **** Fit       0.115823
 **** Fit       0.126829
 **** Fit       0.134581
 **** Fit       0.131781
 **** Fit       0.128888
 **** Fit       0.126375
 **** Fit       0.124328
 **** Fit       0.122646
 **** Fit       0.121149
 **** Fit       0.119644
 **** Fit       0.117962
 **** Fit       0.116021
 **** Fit       0.113913
 **** Fit       0.112051
 **** Fit       0.135729
 **** Fit       0.132395
 **** Fit       0.129266
 **** Fit       0.126691
 **** Fit       0.124686
 **** Fit       0.123125
 **** Fit       0.121831
 **** Fit       0.120612
 **** Fit       0.119269
 **** Fit       0.117611
 **** Fit       0.115477
 **** Fit       0.112790
 **** Fit       0.135997
 **** Fit       0.132385
 **** Fit       0.129224
 **** Fit       0.126723
 **** Fit       0.124845
 **** Fit       0.123456
 **** Fit       0.122396
 **** Fit       0.121493
 **** Fit       0.120571
 **** Fit       0.119443
 **** Fit       0.117909
 **** Fit       0.115761
 **** Fit       0.112801
 **** Fit       0.135584
 **** Fit       0.131778
 **** Fit       0.128627
 **** Fit       0.126252
 **** Fit       0.124568
 **** Fit       0.123423
 **** Fit       0.122647
 **** Fit       0.122070
 **** Fit       0.121515
 **** Fit       0.120791
 **** Fit       0.119681
 **** Fit       0.117928
 **** Fit       0.115230
 **** Fit       0.130449
 **** Fit       0.127572
 **** Fit       0.125517
 **** Fit       0.124171
 **** Fit       0.123377
 **** Fit       0.122975
 **** Fit       0.122807
 **** Fit       0.122711
 **** Fit       0.122509
 **** Fit       0.121991
 **** Fit       0.120896
 **** Fit       0.118889
 **** Fit       0.125182
 **** Fit       0.123991
 **** Fit       0.123433
 **** Fit       0.123354
 **** Fit       0.123605
 **** Fit       0.124040
 **** Fit       0.124501
 **** Fit       0.124803
 **** Fit       0.124704
 **** Fit       0.123885
 **** Fit       0.121912
 **** Fit       0.124493
 **** Fit       0.125639
 **** Fit       0.126915
 **** Fit       0.128133
 **** Fit       0.129288
 **** Fit       0.127694
 **** Fit       0.126399
 **** Fit       0.123743
 **** Fit       0.122535
 **** Fit       0.122496
 **** Fit       0.123339
 **** Fit       0.124261
 **** Fit       0.120705
 **** Fit       0.118745
 **** Fit       0.118111
 **** Fit       0.118537
 **** Fit       0.119763
 **** Fit       0.121536
 **** Fit       0.123607
 **** Fit       0.125719
 **** Fit       0.127604
 **** Fit       0.120345
 **** Fit       0.116963
 **** Fit       0.115129
 **** Fit       0.114604
 **** Fit       0.115152
 **** Fit       0.116547
 **** Fit       0.118567
 **** Fit       0.120990
 **** Fit       0.123584
 **** Fit       0.119034
 **** Fit       0.115170
 **** Fit       0.112876
 **** Fit       0.111966
 **** Fit       0.112240
 **** Fit       0.113502
 **** Fit       0.115552
 **** Fit       0.118192
 **** Fit       0.121210
 **** Fit       0.123719
 **** Fit       0.118148
 **** Fit       0.114090
 **** Fit       0.111496
 **** Fit       0.110262
 **** Fit       0.110251
 **** Fit       0.111306
 **** Fit       0.113265
 **** Fit       0.115958
 **** Fit       0.123941
 **** Fit       0.118262
 **** Fit       0.113913
 **** Fit       0.110977
 **** Fit       0.109434
 **** Fit       0.109201
 **** Fit       0.110157
 **** Fit       0.112155
 **** Fit       0.115033
 **** Fit       0.122142
 **** Fit       0.116910
 **** Fit       0.112887
 **** Fit       0.110254
 **** Fit       0.109059
 **** Fit       0.109252
 **** Fit       0.110725
 **** Fit       0.113327
 **** Fit       0.120936
 **** Fit       0.116288
 **** Fit       0.112662
 **** Fit       0.110370
 **** Fit       0.109542
 **** Fit       0.110170
 **** Fit       0.112151
 **** Fit       0.118764
 **** Fit       0.122571
 **** Fit       0.118547
 **** Fit       0.114793
 **** Fit       0.112065
 **** Fit       0.110790
 **** Fit       0.111125
 **** Fit       0.113016
 **** Fit       0.117379
 **** Fit       0.120047
 **** Fit       0.121734
 **** Fit       0.121375
 **** Fit       0.119074
 **** Fit       0.115964
 **** Fit       0.113404
 **** Fit       0.112350
 **** Fit       0.113197
 **** Fit       0.117306
 **** Fit       0.118349
 **** Fit       0.118635
 **** Fit       0.117159
 **** Fit       0.115044
 **** Fit       0.114204
 **** Fit       0.117567
 **** Fit       0.116697
 **** Fit       0.116046
 **** Fit       0.124569
 **** Fit       0.119292
 **** Fit       0.128636
 **** Fit       0.125307
 **** Fit       0.121661
 **** Fit       0.117565
 **** Fit       0.112779
 **** Fit       0.124265
 **** Fit       0.121946
 **** Fit       0.119271
 **** Fit       0.116176
 **** Fit       0.112522
 **** Fit       0.108074
 **** Fit       0.121257
 **** Fit       0.119763
 **** Fit       0.117903
 **** Fit       0.115661
 **** Fit       0.112973
 **** Fit       0.109712
 **** Fit       0.105674
 **** Fit       0.119077
 **** Fit       0.118454
 **** Fit       0.117424
 **** Fit       0.116012
 **** Fit       0.114211
 **** Fit       0.111977
 **** Fit       0.109215
 **** Fit       0.105767
 **** Fit       0.116527
 **** Fit       0.115946
 **** Fit       0.114982
 **** Fit       0.113635
 **** Fit       0.111877
 **** Fit       0.109648
 **** Fit       0.106840
 **** Fit       0.103285
 **** Fit       0.115073
 **** Fit       0.114777
 **** Fit       0.114157
 **** Fit       0.113190
 **** Fit       0.111854
 **** Fit       0.110107
 **** Fit       0.107881
 **** Fit       0.105078
 **** Fit       0.114251
 **** Fit       0.113955
 **** Fit       0.113427
 **** Fit       0.112587
 **** Fit       0.111385
 **** Fit       0.109775
 **** Fit       0.107699
 **** Fit       0.105088
 **** Fit       0.114243
 **** Fit       0.113703
 **** Fit       0.113122
 **** Fit       0.112333
 **** Fit       0.111233
 **** Fit       0.109760
 **** Fit       0.107872
 **** Fit       0.105567
 **** Fit       0.102930
 **** Fit       0.115979
 **** Fit       0.114545
 **** Fit       0.113616
 **** Fit       0.112764
 **** Fit       0.111754
 **** Fit       0.110446
 **** Fit       0.108798
 **** Fit       0.106888
 **** Fit       0.105011
 **** Fit       0.108326
 **** Fit       0.111088
 **** Fit       0.114705
 **** Fit       0.117017
 **** Fit       0.117096
 **** Fit       0.115796
 **** Fit       0.114331
 **** Fit       0.113073
 **** Fit       0.111803
 **** Fit       0.110321
 **** Fit       0.108747
 **** Fit       0.107719
 **** Fit       0.111015
 **** Fit       0.113609
 **** Fit       0.114875
 **** Fit       0.113783
 **** Fit       0.112137
 **** Fit       0.110701
 **** Fit       0.112743
 -----------------------------------------------------------------
 Leave Link  602 at Fri Aug  1 16:50:33 2025, MaxMem=   393216000 cpu:              18.8 elap:               0.7

 Test job not archived.
 1\1\GINC-E1861\FOpt\RB3LYP\GenECP\C10H14Cl1N4O7Pt1(1+)\PHARMD\01-Aug-2
 025\0\\# B3LYP/genecp Integral=(Grid=UltraFine) Opt Pop(MK,ReadRadii) 
 IOp(6/33=2,6/42=6)\\CLR\\1,1\Pt,0.3629786352,0.1261085462,-1.602979024
 5\N,-1.0799973833,-0.0550561631,-0.190004955\C,-1.5069962289,0.7009959
 627,0.7980048719\C,-2.9940002322,-0.9599996932,0.4609996584\C,-2.73400
 11113,0.1390011934,1.253998517\O,-1.9759999306,-1.0970000913,-0.382999
 9014\C,-4.1069999178,-1.9180001087,0.3570001215\H,-3.8518548098,-2.729
 6226335,-0.3279595962\H,-4.3580799975,-2.3231478938,1.3413697247\H,-5.
 0044718157,-1.4033201136,-0.0055841852\C,1.2979869175,-1.8379909023,1.
 1540094138\H,2.0318059061,-2.6186681998,1.3729084931\H,0.6701326777,-1
 .7490730709,2.0468456623\H,0.6926500365,-2.1387045748,0.2981984445\N,-
 3.573,0.644,2.285\O,-3.152,1.572,2.967\O,-4.675,0.125,2.435\N,1.751050
 3822,0.186949232,-0.1720521738\C,1.996004579,-0.5579916182,0.887004871
 3\C,3.320992868,1.2700050163,0.9650052115\C,3.0029905701,0.1100065373,
 1.6420067381\O,2.5599892195,1.3160072572,-0.1279888646\C,4.2670025349,
 2.3749982174,1.1959981463\H,4.1123741101,2.8032109829,2.1909866077\H,5
 .2947650635,1.9960780563,1.1753162531\H,4.1467183676,3.1448940422,0.43
 08433269\C,-0.7930013363,1.9170014328,1.2529982679\H,-0.396988239,1.76
 75097437,2.2632461426\H,0.0144948198,2.1772286151,0.567717476\H,-1.494
 031827,2.7533596615,1.3222982621\N,3.586,-0.323,2.87\O,3.153,-1.347,3.
 383\O,4.488,0.36,3.343\Cl,1.9860025607,0.3359623265,-3.2550022733\H,-1
 .1965242407,-0.7807289934,-3.4285542277\O,-1.1160021269,0.112002855,-3
 .036998625\H,-0.8140362423,0.6873533097,-3.7722088419\\Version=ES64L-G
 16RevC.01\State=1-A\HF=-1714.1920998\RMSD=3.833e-09\RMSF=1.091e-06\Dip
 ole=-1.4731717,-0.3122533,-0.9422357\Quadrupole=9.0116417,1.1728182,-1
 0.1844599,17.2818983,13.9467667,3.4429752\PG=C01 [X(C10H14Cl1N4O7Pt1)]
 \\@


 LENDING MONEY TO FRIENDS CAUSES THEM TO LOSE THEIR MEMORIES.

    --  PETER'S THEORY OF RECIPROCAL INHIBITION OF FISCAL RECALL
 Job cpu time:       0 days  7 hours 57 minutes 31.8 seconds.
 Elapsed time:       0 days  0 hours 11 minutes 40.0 seconds.
 File lengths (MBytes):  RWF=     90 Int=      0 D2E=      0 Chk=     12 Scr=      1
 Normal termination of Gaussian 16 at Fri Aug  1 16:50:33 2025.
