 Entering Gaussian System, Link 0=g16
 Input=CIX_small_fc.gjf
 Output=CIX_small_fc.log
 Initial command:
 /opt/exp_soft/local/skylake/gaussian/g16/C.01/l1.exe "/mnt/storage_5/scratch/pl0251-02/35462434/Gau-20217.inp" -scrdir="/mnt/storage_5/scratch/pl0251-02/35462434/"
 Entering Link 1 = /opt/exp_soft/local/skylake/gaussian/g16/C.01/l1.exe PID=     20218.
  
 Copyright (c) 1988-2019, Gaussian, Inc.  All Rights Reserved.
  
 This is part of the Gaussian(R) 16 program.  It is based on
 the Gaussian(R) 09 system (copyright 2009, Gaussian, Inc.),
 the Gaussian(R) 03 system (copyright 2003, Gaussian, Inc.),
 the Gaussian(R) 98 system (copyright 1998, Gaussian, Inc.),
 the Gaussian(R) 94 system (copyright 1995, Gaussian, Inc.),
 the Gaussian 92(TM) system (copyright 1992, Gaussian, Inc.),
 the Gaussian 90(TM) system (copyright 1990, Gaussian, Inc.),
 the Gaussian 88(TM) system (copyright 1988, Gaussian, Inc.),
 the Gaussian 86(TM) system (copyright 1986, Carnegie Mellon
 University), and the Gaussian 82(TM) system (copyright 1983,
 Carnegie Mellon University). Gaussian is a federally registered
 trademark of Gaussian, Inc.
  
 This software contains proprietary and confidential information,
 including trade secrets, belonging to Gaussian, Inc.
  
 This software is provided under written license and may be
 used, copied, transmitted, or stored only in accord with that
 written license.
  
 The following legend is applicable only to US Government
 contracts under FAR:
  
                    RESTRICTED RIGHTS LEGEND
  
 Use, reproduction and disclosure by the US Government is
 subject to restrictions as set forth in subparagraphs (a)
 and (c) of the Commercial Computer Software - Restricted
 Rights clause in FAR 52.227-19.
  
 Gaussian, Inc.
 340 Quinnipiac St., Bldg. 40, Wallingford CT 06492
  
  
 ---------------------------------------------------------------
 Warning -- This program may not be used in any manner that
 competes with the business of Gaussian, Inc. or will provide
 assistance to any competitor of Gaussian, Inc.  The licensee
 of this program is prohibited from giving any competitor of
 Gaussian, Inc. access to this program.  By using this program,
 the user acknowledges that Gaussian, Inc. is engaged in the
 business of creating and licensing software in the field of
 computational chemistry and represents and warrants to the
 licensee that it is not a competitor of Gaussian, Inc. and that
 it will not use this program in any manner prohibited above.
 ---------------------------------------------------------------
  

 Cite this work as:
 Gaussian 16, Revision C.01,
 M. J. Frisch, G. W. Trucks, H. B. Schlegel, G. E. Scuseria, 
 M. A. Robb, J. R. Cheeseman, G. Scalmani, V. Barone, 
 G. A. Petersson, H. Nakatsuji, X. Li, M. Caricato, A. V. Marenich, 
 J. Bloino, B. G. Janesko, R. Gomperts, B. Mennucci, H. P. Hratchian, 
 J. V. Ortiz, A. F. Izmaylov, J. L. Sonnenberg, D. Williams-Young, 
 F. Ding, F. Lipparini, F. Egidi, J. Goings, B. Peng, A. Petrone, 
 T. Henderson, D. Ranasinghe, V. G. Zakrzewski, J. Gao, N. Rega, 
 G. Zheng, W. Liang, M. Hada, M. Ehara, K. Toyota, R. Fukuda, 
 J. Hasegawa, M. Ishida, T. Nakajima, Y. Honda, O. Kitao, H. Nakai, 
 T. Vreven, K. Throssell, J. A. Montgomery, Jr., J. E. Peralta, 
 F. Ogliaro, M. J. Bearpark, J. J. Heyd, E. N. Brothers, K. N. Kudin, 
 V. N. Staroverov, T. A. Keith, R. Kobayashi, J. Normand, 
 K. Raghavachari, A. P. Rendell, J. C. Burant, S. S. Iyengar, 
 J. Tomasi, M. Cossi, J. M. Millam, M. Klene, C. Adamo, R. Cammi, 
 J. W. Ochterski, R. L. Martin, K. Morokuma, O. Farkas, 
 J. B. Foresman, and D. J. Fox, Gaussian, Inc., Wallingford CT, 2019.
 
 ******************************************
 Gaussian 16:  ES64L-G16RevC.01  3-Jul-2019
                 1-Aug-2025 
 ******************************************
 %Chk=CIX_small_opt.chk
 %Mem=3000MB
 %NProcShared=48
 Will use up to   48 processors via shared memory.
 ----------------------------------------------------------------------
 # B3LYP/genecp Freq Geom=AllCheckpoint Guess=Read Integral=(Grid=Ultra
 Fine) IOp(7/33=1)
 ----------------------------------------------------------------------
 1/10=4,29=7,30=1,38=1/1,3;
 2/12=2,40=1/2;
 3/5=7,11=2,14=-4,16=1,17=8,25=1,30=1,71=2,74=-5,75=-5,116=-2,140=1/1,2,3;
 4/5=1/1;
 5/5=2,38=6,98=1/2;
 8/6=4,10=90,11=11/1;
 11/6=1,8=1,9=11,15=111,16=1/1,2,10;
 10/6=1/2;
 6/7=2,8=2,9=2,10=2,28=1/1;
 7/8=1,10=1,25=1,33=1/1,2,3,16;
 1/10=4,30=1/3;
 99//99;
 Structure from the checkpoint file:  "CIX_small_opt.chk"
 ---
 CLR
 ---
 Charge =  1 Multiplicity = 1
 Redundant internal coordinates found in file.  (old form).
 Pt,0,0.3153652854,0.100882941,-1.3904425542
 N,0,-1.2861346351,0.3270558726,-0.1086972409
 C,0,-2.0821220409,1.3311672115,0.2167701579
 C,0,-2.7545080077,-0.4904574651,1.3642217201
 C,0,-3.0339010587,0.8394629351,1.1545830265
 O,0,-1.6951804717,-0.8121500394,0.6032453862
 C,0,-3.3486669963,-1.5623089947,2.1998614811
 H,0,-2.8035342685,-2.4979609468,2.0590190043
 H,0,-3.3259023897,-1.2722388482,3.2550613695
 H,0,-4.4016640407,-1.7026854266,1.9357316451
 C,0,2.4362433164,-2.4441931203,-0.1292120637
 H,0,3.4027231517,-2.6034005131,-0.6175470472
 H,0,2.3318617365,-3.2185471926,0.6354554091
 H,0,1.6417623474,-2.5319679203,-0.8714992048
 N,0,-4.096765962,1.5855581532,1.7809201641
 O,0,-4.2040492675,2.7691788305,1.4702686369
 O,0,-4.8062350158,0.9716182083,2.5744472669
 N,0,1.5847061803,-0.1387257896,0.1317235732
 C,0,2.4136587003,-1.097617425,0.5072341341
 C,0,2.8016307962,0.721652205,1.7870331946
 C,0,3.2018843722,-0.5756966836,1.5718009991
 O,0,1.8158491168,0.9978587375,0.9161737593
 C,0,3.2105932459,1.799995007,2.7192707182
 H,0,3.1085666921,1.4621889978,3.7551207931
 H,0,4.2682401033,2.0394487891,2.5684263336
 H,0,2.604179842,2.6929994803,2.5543712325
 C,0,-1.9191299038,2.6985110932,-0.3550196744
 H,0,-1.8149339777,3.4294515456,0.4517249822
 H,0,-1.0457338347,2.7410735054,-1.0089050291
 H,0,-2.8148031432,2.977786571,-0.9183720701
 N,0,4.2332018996,-1.2685469582,2.3040433174
 O,0,4.4597182221,-2.4319065007,1.9830695198
 O,0,4.7972346555,-0.6323949769,3.1913673171
 Cl,0,2.0266692027,-0.0839947229,-2.9325464764
 H,0,-1.4272900466,-0.4206408209,-3.2953391884
 O,0,-0.9316976852,0.3920027386,-3.0777543448
 H,0,-0.2998361207,0.5295415225,-3.8186102479
 Recover connectivity data from disk.

 GradGradGradGradGradGradGradGradGradGradGradGradGradGradGradGradGradGrad
 Berny optimization.
 Initialization pass.
                           ----------------------------
                           !    Initial Parameters    !
                           ! (Angstroms and Degrees)  !
 --------------------------                            --------------------------
 ! Name  Definition              Value          Derivative Info.                !
 --------------------------------------------------------------------------------
 ! R1    R(1,2)                  2.0637         calculate D2E/DX2 analytically  !
 ! R2    R(1,18)                 1.9964         calculate D2E/DX2 analytically  !
 ! R3    R(1,34)                 2.311          calculate D2E/DX2 analytically  !
 ! R4    R(1,36)                 2.1182         calculate D2E/DX2 analytically  !
 ! R5    R(2,3)                  1.322          calculate D2E/DX2 analytically  !
 ! R6    R(2,6)                  1.4043         calculate D2E/DX2 analytically  !
 ! R7    R(3,5)                  1.4238         calculate D2E/DX2 analytically  !
 ! R8    R(3,27)                 1.491          calculate D2E/DX2 analytically  !
 ! R9    R(4,5)                  1.375          calculate D2E/DX2 analytically  !
 ! R10   R(4,6)                  1.3434         calculate D2E/DX2 analytically  !
 ! R11   R(4,7)                  1.4833         calculate D2E/DX2 analytically  !
 ! R12   R(5,15)                 1.4417         calculate D2E/DX2 analytically  !
 ! R13   R(7,8)                  1.092          calculate D2E/DX2 analytically  !
 ! R14   R(7,9)                  1.0946         calculate D2E/DX2 analytically  !
 ! R15   R(7,10)                 1.0947         calculate D2E/DX2 analytically  !
 ! R16   R(11,12)                1.0945         calculate D2E/DX2 analytically  !
 ! R17   R(11,13)                1.0933         calculate D2E/DX2 analytically  !
 ! R18   R(11,14)                1.0908         calculate D2E/DX2 analytically  !
 ! R19   R(11,19)                1.4896         calculate D2E/DX2 analytically  !
 ! R20   R(15,16)                1.2284         calculate D2E/DX2 analytically  !
 ! R21   R(15,17)                1.2288         calculate D2E/DX2 analytically  !
 ! R22   R(18,19)                1.322          calculate D2E/DX2 analytically  !
 ! R23   R(18,22)                1.4002         calculate D2E/DX2 analytically  !
 ! R24   R(19,21)                1.4237         calculate D2E/DX2 analytically  !
 ! R25   R(20,21)                1.3746         calculate D2E/DX2 analytically  !
 ! R26   R(20,22)                1.344          calculate D2E/DX2 analytically  !
 ! R27   R(20,23)                1.4829         calculate D2E/DX2 analytically  !
 ! R28   R(21,31)                1.4422         calculate D2E/DX2 analytically  !
 ! R29   R(23,24)                1.0943         calculate D2E/DX2 analytically  !
 ! R30   R(23,25)                1.0949         calculate D2E/DX2 analytically  !
 ! R31   R(23,26)                1.092          calculate D2E/DX2 analytically  !
 ! R32   R(27,28)                1.0936         calculate D2E/DX2 analytically  !
 ! R33   R(27,29)                1.0919         calculate D2E/DX2 analytically  !
 ! R34   R(27,30)                1.0943         calculate D2E/DX2 analytically  !
 ! R35   R(31,32)                1.2279         calculate D2E/DX2 analytically  !
 ! R36   R(31,33)                1.2289         calculate D2E/DX2 analytically  !
 ! R37   R(35,36)                0.9764         calculate D2E/DX2 analytically  !
 ! R38   R(36,37)                0.9834         calculate D2E/DX2 analytically  !
 ! A1    A(2,1,18)              91.8919         calculate D2E/DX2 analytically  !
 ! A2    A(2,1,36)              91.3067         calculate D2E/DX2 analytically  !
 ! A3    A(18,1,34)             91.6247         calculate D2E/DX2 analytically  !
 ! A4    A(34,1,36)             85.1477         calculate D2E/DX2 analytically  !
 ! A5    A(1,2,3)              134.6999         calculate D2E/DX2 analytically  !
 ! A6    A(1,2,6)              116.8737         calculate D2E/DX2 analytically  !
 ! A7    A(3,2,6)              108.4189         calculate D2E/DX2 analytically  !
 ! A8    A(2,3,5)              107.5987         calculate D2E/DX2 analytically  !
 ! A9    A(2,3,27)             122.4317         calculate D2E/DX2 analytically  !
 ! A10   A(5,3,27)             129.9693         calculate D2E/DX2 analytically  !
 ! A11   A(5,4,6)              107.7862         calculate D2E/DX2 analytically  !
 ! A12   A(5,4,7)              134.7011         calculate D2E/DX2 analytically  !
 ! A13   A(6,4,7)              117.5125         calculate D2E/DX2 analytically  !
 ! A14   A(3,5,4)              107.3744         calculate D2E/DX2 analytically  !
 ! A15   A(3,5,15)             126.8874         calculate D2E/DX2 analytically  !
 ! A16   A(4,5,15)             125.7379         calculate D2E/DX2 analytically  !
 ! A17   A(2,6,4)              108.821          calculate D2E/DX2 analytically  !
 ! A18   A(4,7,8)              110.2751         calculate D2E/DX2 analytically  !
 ! A19   A(4,7,9)              110.0762         calculate D2E/DX2 analytically  !
 ! A20   A(4,7,10)             110.002          calculate D2E/DX2 analytically  !
 ! A21   A(8,7,9)              109.939          calculate D2E/DX2 analytically  !
 ! A22   A(8,7,10)             109.8288         calculate D2E/DX2 analytically  !
 ! A23   A(9,7,10)             106.6545         calculate D2E/DX2 analytically  !
 ! A24   A(12,11,13)           107.0586         calculate D2E/DX2 analytically  !
 ! A25   A(12,11,14)           109.137          calculate D2E/DX2 analytically  !
 ! A26   A(12,11,19)           109.6044         calculate D2E/DX2 analytically  !
 ! A27   A(13,11,14)           110.4518         calculate D2E/DX2 analytically  !
 ! A28   A(13,11,19)           109.8771         calculate D2E/DX2 analytically  !
 ! A29   A(14,11,19)           110.637          calculate D2E/DX2 analytically  !
 ! A30   A(5,15,16)            116.9459         calculate D2E/DX2 analytically  !
 ! A31   A(5,15,17)            116.5916         calculate D2E/DX2 analytically  !
 ! A32   A(16,15,17)           126.4625         calculate D2E/DX2 analytically  !
 ! A33   A(1,18,19)            134.6134         calculate D2E/DX2 analytically  !
 ! A34   A(1,18,22)            115.7654         calculate D2E/DX2 analytically  !
 ! A35   A(19,18,22)           109.0339         calculate D2E/DX2 analytically  !
 ! A36   A(11,19,18)           122.9461         calculate D2E/DX2 analytically  !
 ! A37   A(11,19,21)           129.9771         calculate D2E/DX2 analytically  !
 ! A38   A(18,19,21)           107.0766         calculate D2E/DX2 analytically  !
 ! A39   A(21,20,22)           107.8217         calculate D2E/DX2 analytically  !
 ! A40   A(21,20,23)           134.7814         calculate D2E/DX2 analytically  !
 ! A41   A(22,20,23)           117.3969         calculate D2E/DX2 analytically  !
 ! A42   A(19,21,20)           107.5686         calculate D2E/DX2 analytically  !
 ! A43   A(19,21,31)           126.8305         calculate D2E/DX2 analytically  !
 ! A44   A(20,21,31)           125.6007         calculate D2E/DX2 analytically  !
 ! A45   A(18,22,20)           108.4973         calculate D2E/DX2 analytically  !
 ! A46   A(20,23,24)           110.1741         calculate D2E/DX2 analytically  !
 ! A47   A(20,23,25)           109.8055         calculate D2E/DX2 analytically  !
 ! A48   A(20,23,26)           110.2787         calculate D2E/DX2 analytically  !
 ! A49   A(24,23,25)           106.738          calculate D2E/DX2 analytically  !
 ! A50   A(24,23,26)           110.0974         calculate D2E/DX2 analytically  !
 ! A51   A(25,23,26)           109.6823         calculate D2E/DX2 analytically  !
 ! A52   A(3,27,28)            109.9046         calculate D2E/DX2 analytically  !
 ! A53   A(3,27,29)            110.6615         calculate D2E/DX2 analytically  !
 ! A54   A(3,27,30)            109.9972         calculate D2E/DX2 analytically  !
 ! A55   A(28,27,29)           109.8471         calculate D2E/DX2 analytically  !
 ! A56   A(28,27,30)           106.6883         calculate D2E/DX2 analytically  !
 ! A57   A(29,27,30)           109.6608         calculate D2E/DX2 analytically  !
 ! A58   A(21,31,32)           117.0244         calculate D2E/DX2 analytically  !
 ! A59   A(21,31,33)           116.4963         calculate D2E/DX2 analytically  !
 ! A60   A(32,31,33)           126.4792         calculate D2E/DX2 analytically  !
 ! A61   A(1,36,35)            111.2198         calculate D2E/DX2 analytically  !
 ! A62   A(1,36,37)            103.9488         calculate D2E/DX2 analytically  !
 ! A63   A(35,36,37)           105.9416         calculate D2E/DX2 analytically  !
 ! A64   L(2,1,34,36,-1)       176.4544         calculate D2E/DX2 analytically  !
 ! A65   L(18,1,36,34,-1)      176.7724         calculate D2E/DX2 analytically  !
 ! A66   L(2,1,34,36,-2)       178.7899         calculate D2E/DX2 analytically  !
 ! A67   L(18,1,36,34,-2)      181.2983         calculate D2E/DX2 analytically  !
 ! D1    D(18,1,2,3)           111.7327         calculate D2E/DX2 analytically  !
 ! D2    D(18,1,2,6)           -69.4026         calculate D2E/DX2 analytically  !
 ! D3    D(36,1,2,3)           -66.9009         calculate D2E/DX2 analytically  !
 ! D4    D(36,1,2,6)           111.9638         calculate D2E/DX2 analytically  !
 ! D5    D(2,1,18,19)          121.0061         calculate D2E/DX2 analytically  !
 ! D6    D(2,1,18,22)          -68.959          calculate D2E/DX2 analytically  !
 ! D7    D(34,1,18,19)         -60.2843         calculate D2E/DX2 analytically  !
 ! D8    D(34,1,18,22)         109.7505         calculate D2E/DX2 analytically  !
 ! D9    D(2,1,36,35)          -79.3317         calculate D2E/DX2 analytically  !
 ! D10   D(2,1,36,37)          167.0885         calculate D2E/DX2 analytically  !
 ! D11   D(34,1,36,35)         101.8784         calculate D2E/DX2 analytically  !
 ! D12   D(34,1,36,37)         -11.7014         calculate D2E/DX2 analytically  !
 ! D13   D(1,2,3,5)            178.6716         calculate D2E/DX2 analytically  !
 ! D14   D(1,2,3,27)            -1.4923         calculate D2E/DX2 analytically  !
 ! D15   D(6,2,3,5)             -0.2611         calculate D2E/DX2 analytically  !
 ! D16   D(6,2,3,27)           179.575          calculate D2E/DX2 analytically  !
 ! D17   D(1,2,6,4)           -178.9455         calculate D2E/DX2 analytically  !
 ! D18   D(3,2,6,4)              0.204          calculate D2E/DX2 analytically  !
 ! D19   D(2,3,5,4)              0.2291         calculate D2E/DX2 analytically  !
 ! D20   D(2,3,5,15)          -179.9612         calculate D2E/DX2 analytically  !
 ! D21   D(27,3,5,4)          -179.5904         calculate D2E/DX2 analytically  !
 ! D22   D(27,3,5,15)            0.2193         calculate D2E/DX2 analytically  !
 ! D23   D(2,3,27,28)         -124.4828         calculate D2E/DX2 analytically  !
 ! D24   D(2,3,27,29)           -2.9863         calculate D2E/DX2 analytically  !
 ! D25   D(2,3,27,30)          118.3381         calculate D2E/DX2 analytically  !
 ! D26   D(5,3,27,28)           55.3134         calculate D2E/DX2 analytically  !
 ! D27   D(5,3,27,29)          176.8098         calculate D2E/DX2 analytically  !
 ! D28   D(5,3,27,30)          -61.8658         calculate D2E/DX2 analytically  !
 ! D29   D(6,4,5,3)             -0.1016         calculate D2E/DX2 analytically  !
 ! D30   D(6,4,5,15)          -179.9142         calculate D2E/DX2 analytically  !
 ! D31   D(7,4,5,3)           -179.9428         calculate D2E/DX2 analytically  !
 ! D32   D(7,4,5,15)             0.2446         calculate D2E/DX2 analytically  !
 ! D33   D(5,4,6,2)             -0.0553         calculate D2E/DX2 analytically  !
 ! D34   D(7,4,6,2)            179.8174         calculate D2E/DX2 analytically  !
 ! D35   D(5,4,7,8)            179.8021         calculate D2E/DX2 analytically  !
 ! D36   D(5,4,7,9)            -58.7262         calculate D2E/DX2 analytically  !
 ! D37   D(5,4,7,10)            58.5167         calculate D2E/DX2 analytically  !
 ! D38   D(6,4,7,8)             -0.0274         calculate D2E/DX2 analytically  !
 ! D39   D(6,4,7,9)            121.4443         calculate D2E/DX2 analytically  !
 ! D40   D(6,4,7,10)          -121.3127         calculate D2E/DX2 analytically  !
 ! D41   D(3,5,15,16)            0.5373         calculate D2E/DX2 analytically  !
 ! D42   D(3,5,15,17)         -179.4496         calculate D2E/DX2 analytically  !
 ! D43   D(4,5,15,16)         -179.6864         calculate D2E/DX2 analytically  !
 ! D44   D(4,5,15,17)            0.3268         calculate D2E/DX2 analytically  !
 ! D45   D(12,11,19,18)        116.2797         calculate D2E/DX2 analytically  !
 ! D46   D(12,11,19,21)        -63.9069         calculate D2E/DX2 analytically  !
 ! D47   D(13,11,19,18)       -126.3396         calculate D2E/DX2 analytically  !
 ! D48   D(13,11,19,21)         53.4737         calculate D2E/DX2 analytically  !
 ! D49   D(14,11,19,18)         -4.1181         calculate D2E/DX2 analytically  !
 ! D50   D(14,11,19,21)        175.6953         calculate D2E/DX2 analytically  !
 ! D51   D(1,18,19,11)          -9.2645         calculate D2E/DX2 analytically  !
 ! D52   D(1,18,19,21)         170.8851         calculate D2E/DX2 analytically  !
 ! D53   D(22,18,19,11)       -179.7755         calculate D2E/DX2 analytically  !
 ! D54   D(22,18,19,21)          0.3741         calculate D2E/DX2 analytically  !
 ! D55   D(1,18,22,20)        -172.69           calculate D2E/DX2 analytically  !
 ! D56   D(19,18,22,20)         -0.1777         calculate D2E/DX2 analytically  !
 ! D57   D(11,19,21,20)        179.725          calculate D2E/DX2 analytically  !
 ! D58   D(11,19,21,31)         -0.4348         calculate D2E/DX2 analytically  !
 ! D59   D(18,19,21,20)         -0.4388         calculate D2E/DX2 analytically  !
 ! D60   D(18,19,21,31)        179.4014         calculate D2E/DX2 analytically  !
 ! D61   D(22,20,21,19)          0.3294         calculate D2E/DX2 analytically  !
 ! D62   D(22,20,21,31)       -179.5133         calculate D2E/DX2 analytically  !
 ! D63   D(23,20,21,19)       -179.6135         calculate D2E/DX2 analytically  !
 ! D64   D(23,20,21,31)          0.5439         calculate D2E/DX2 analytically  !
 ! D65   D(21,20,22,18)         -0.1055         calculate D2E/DX2 analytically  !
 ! D66   D(23,20,22,18)        179.8488         calculate D2E/DX2 analytically  !
 ! D67   D(21,20,23,24)        -57.4047         calculate D2E/DX2 analytically  !
 ! D68   D(21,20,23,25)         59.8809         calculate D2E/DX2 analytically  !
 ! D69   D(21,20,23,26)       -179.1418         calculate D2E/DX2 analytically  !
 ! D70   D(22,20,23,24)        122.6566         calculate D2E/DX2 analytically  !
 ! D71   D(22,20,23,25)       -120.0577         calculate D2E/DX2 analytically  !
 ! D72   D(22,20,23,26)          0.9196         calculate D2E/DX2 analytically  !
 ! D73   D(19,21,31,32)         -0.1306         calculate D2E/DX2 analytically  !
 ! D74   D(19,21,31,33)        179.9796         calculate D2E/DX2 analytically  !
 ! D75   D(20,21,31,32)        179.682          calculate D2E/DX2 analytically  !
 ! D76   D(20,21,31,33)         -0.2078         calculate D2E/DX2 analytically  !
 --------------------------------------------------------------------------------
 Trust Radius=3.00D-01 FncErr=1.00D-07 GrdErr=1.00D-07 EigMax=2.50D+02 EigMin=1.00D-04
 Number of steps in this run=      2 maximum allowed number of steps=      2.
 GradGradGradGradGradGradGradGradGradGradGradGradGradGradGradGradGradGrad

                          Input orientation:                          
 ---------------------------------------------------------------------
 Center     Atomic      Atomic             Coordinates (Angstroms)
 Number     Number       Type             X           Y           Z
 ---------------------------------------------------------------------
      1         78           0        0.315365    0.100883   -1.390443
      2          7           0       -1.286135    0.327056   -0.108697
      3          6           0       -2.082122    1.331167    0.216770
      4          6           0       -2.754508   -0.490457    1.364222
      5          6           0       -3.033901    0.839463    1.154583
      6          8           0       -1.695180   -0.812150    0.603245
      7          6           0       -3.348667   -1.562309    2.199861
      8          1           0       -2.803534   -2.497961    2.059019
      9          1           0       -3.325902   -1.272239    3.255061
     10          1           0       -4.401664   -1.702685    1.935732
     11          6           0        2.436243   -2.444193   -0.129212
     12          1           0        3.402723   -2.603401   -0.617547
     13          1           0        2.331862   -3.218547    0.635455
     14          1           0        1.641762   -2.531968   -0.871499
     15          7           0       -4.096766    1.585558    1.780920
     16          8           0       -4.204049    2.769179    1.470269
     17          8           0       -4.806235    0.971618    2.574447
     18          7           0        1.584706   -0.138726    0.131724
     19          6           0        2.413659   -1.097617    0.507234
     20          6           0        2.801631    0.721652    1.787033
     21          6           0        3.201884   -0.575697    1.571801
     22          8           0        1.815849    0.997859    0.916174
     23          6           0        3.210593    1.799995    2.719271
     24          1           0        3.108567    1.462189    3.755121
     25          1           0        4.268240    2.039449    2.568426
     26          1           0        2.604180    2.692999    2.554371
     27          6           0       -1.919130    2.698511   -0.355020
     28          1           0       -1.814934    3.429452    0.451725
     29          1           0       -1.045734    2.741074   -1.008905
     30          1           0       -2.814803    2.977787   -0.918372
     31          7           0        4.233202   -1.268547    2.304043
     32          8           0        4.459718   -2.431907    1.983070
     33          8           0        4.797235   -0.632395    3.191367
     34         17           0        2.026669   -0.083995   -2.932546
     35          1           0       -1.427290   -0.420641   -3.295339
     36          8           0       -0.931698    0.392003   -3.077754
     37          1           0       -0.299836    0.529542   -3.818610
 ---------------------------------------------------------------------
                    Distance matrix (angstroms):
                    1          2          3          4          5
     1  Pt   0.000000
     2  N    2.063693   0.000000
     3  C    3.137623   1.322030   0.000000
     4  C    4.166771   2.234712   2.255452   0.000000
     5  C    4.270859   2.216557   1.423780   1.375026   0.000000
     6  O    2.975015   1.404269   2.211989   1.343408   2.196354
     7  C    5.392738   3.626732   3.729476   1.483302   2.638218
     8  H    5.327317   3.870687   4.310051   2.124904   3.465468
     9  H    6.060116   4.246560   4.189979   2.124370   2.992751
    10  H    6.047037   4.243355   4.188003   2.123498   2.990566
    11  C    3.544889   4.640726   5.898193   5.743808   6.507919
    12  H    4.176397   5.552647   6.801502   6.804662   7.511583
    13  H    4.380541   5.120055   6.352830   5.817622   6.747470
    14  H    2.993415   4.162747   5.474985   5.337922   6.110105
    15  N    5.632824   3.613050   2.563215   2.507017   1.441748
    16  O    5.977339   4.119627   2.853368   3.568984   2.278751
    17  O    6.535237   4.472788   3.620595   2.794977   2.274785
    18  N    1.996404   2.918301   3.951386   4.524549   4.830593
    19  C    3.072526   4.012173   5.118145   5.273805   5.817839
    20  C    4.082061   4.523199   5.166070   5.702513   5.870886
    21  C    4.191019   4.876613   5.778664   5.960618   6.407946
    22  O    2.894218   3.335062   3.974222   4.827421   4.858189
    23  C    5.306512   5.512487   5.873257   6.531827   6.508808
    24  H    6.010986   5.960790   6.283338   6.626075   6.699291
    25  H    5.920802   6.399247   6.808748   7.561053   7.533936
    26  H    5.245884   5.274862   5.411136   6.345580   6.097783
    27  C    3.579489   2.466811   1.491020   3.717952   2.641529
    28  H    4.360175   3.196648   2.128236   4.132933   2.947530
    29  H    2.994790   2.587595   2.136403   4.358260   3.499945
    30  H    4.277544   3.165245   2.129959   4.152419   2.986231
    31  N    5.556438   6.231400   7.141326   7.093432   7.653480
    32  O    5.913651   6.708367   7.750885   7.496483   8.218429
    33  O    6.451188   6.987013   7.747861   7.770935   8.224448
    34  Cl   2.311023   4.372386   5.366847   6.441047   6.570143
    35  H    2.633907   3.276227   3.979013   4.845399   4.896005
    36  O    2.118239   2.990843   3.613779   4.881857   4.746805
    37  H    2.541303   3.844118   4.483686   5.824737   5.683644
                    6          7          8          9         10
     6  O    0.000000
     7  C    2.417838   0.000000
     8  H    2.487907   1.091994   0.000000
     9  H    3.146913   1.094580   1.790469   0.000000
    10  H    3.145414   1.094657   1.789324   1.755898   0.000000
    11  C    4.502080   6.298213   5.678602   6.784475   7.181281
    12  H    5.539633   7.389380   6.759642   7.876769   8.260689
    13  H    4.691359   6.120367   5.377552   6.531519   7.023455
    14  H    4.033340   5.939518   5.324449   6.579750   6.715002
    15  N    3.592149   3.262550   4.292425   3.306709   3.305976
    16  O    4.457810   4.475016   5.481864   4.504407   4.500364
    17  O    4.092203   2.947135   4.039116   2.772997   2.779125
    18  N    3.381344   5.535518   5.342014   5.929095   6.444924
    19  C    4.119863   6.023730   5.620329   6.365816   6.989659
    20  C    4.896449   6.573665   6.469757   6.608886   7.601775
    21  C    4.997525   6.654141   6.324360   6.777207   7.695226
    22  O    3.962497   5.905467   5.904706   6.087803   6.854918
    23  C    5.947056   7.389098   7.421461   7.242339   8.416006
    24  H    6.179233   7.298102   7.315223   7.009247   8.350459
    25  H    6.896081   8.433610   8.417694   8.313227   9.464201
    26  H    5.880261   7.325962   7.512311   7.167981   8.293769
    27  C    3.645980   5.169679   5.797678   5.547842   5.548067
    28  H    4.245996   5.506904   6.220526   5.678698   5.935678
    29  H    3.955529   5.841129   6.320562   6.283888   6.299218
    30  H    4.234678   5.533612   6.232880   5.978418   5.707088
    31  N    6.184394   7.588273   7.147528   7.618695   8.653614
    32  O    6.512319   7.859649   7.263950   7.973624   8.891462
    33  O    6.991576   8.258543   7.907859   8.148547   9.345688
    34  Cl   5.184998   7.577682   7.353491   8.267311   8.224583
    35  H    3.927341   5.932312   5.905799   6.872968   6.152613
    36  O    3.947486   6.124892   6.184020   6.971834   6.446970
    37  H    4.827000   7.063513   7.069710   7.901919   7.410822
                   11         12         13         14         15
    11  C    0.000000
    12  H    1.094487   0.000000
    13  H    1.093269   1.759308   0.000000
    14  H    1.090823   1.780611   1.794029   0.000000
    15  N    7.909975   8.918652   8.106712   7.544538   0.000000
    16  O    8.592501   9.543928   8.903253   8.231619   1.228402
    17  O    8.451688   9.505608   8.501153   8.107178   1.228802
    18  N    2.471514   3.152969   3.208939   2.595635   6.162153
    19  C    1.489577   2.123856   2.126376   2.134032   7.155930
    20  C    3.718613   4.147203   4.131826   4.358800   6.952284
    21  C    2.640252   2.990847   2.935701   3.497241   7.614792
    22  O    3.650403   4.223688   4.257129   3.960525   6.004348
    23  C    5.169778   5.528215   5.504564   5.841298   7.370481
    24  H    5.549764   5.977940   5.678457   6.285731   7.471915
    25  H    5.544052   5.696981   5.927264   6.295183   8.414244
    26  H    5.798325   6.224997   6.221156   6.321639   6.835739
    27  C    6.742972   7.516735   7.352792   6.348592   3.246999
    28  H    7.273905   8.047521   7.837446   7.016993   3.220786
    29  H    6.307536   6.964577   7.044796   5.920007   4.292684
    30  H    7.589079   8.360489   8.203480   7.086647   3.296651
    31  N    3.245294   3.317713   3.194023   4.289040   8.820881
    32  O    2.925121   2.812446   2.638682   4.012412   9.454856
    33  O    4.459051   4.509696   4.393055   5.483819   9.274261
    34  Cl   3.687407   3.687838   4.759117   3.223142   7.905734
    35  H    5.389435   5.938353   6.116424   4.444298   6.076129
    36  O    5.299145   5.814831   6.121668   4.476591   5.920215
    37  H    5.471827   5.811289   6.388482   4.672056   6.847378
                   16         17         18         19         20
    16  O    0.000000
    17  O    2.193869   0.000000
    18  N    6.614930   6.931370   0.000000
    19  C    7.724869   7.789863   1.321985   0.000000
    20  C    7.305632   7.652590   2.227376   2.257908   0.000000
    21  C    8.126891   8.217631   2.209079   1.423729   1.374642
    22  O    6.299506   6.826607   1.400219   2.217122   1.344043
    23  C    7.581309   8.060814   3.619053   3.731537   1.482950
    24  H    7.771945   8.017402   4.244300   4.193361   2.125082
    25  H    8.574272   9.137089   4.228867   4.186785   2.120874
    26  H    6.894423   7.607746   3.863576   4.312290   2.124619
    27  C    2.925325   4.460864   4.534722   5.824700   5.548148
    28  H    2.679788   4.415289   4.938810   6.195033   5.516149
    29  H    4.015227   5.487509   4.063680   5.385315   5.166967
    30  H    2.771124   4.493362   5.492816   6.780714   6.629758
    31  N    9.390720   9.316806   3.606938   2.562904   2.505512
    32  O   10.118059   9.888963   4.117263   2.853906   3.568279
    33  O    9.775275   9.756028   4.463795   3.619729   2.790705
    34  Cl   8.145381   8.839111   3.096462   3.606838   4.850161
    35  H    6.371527   6.914481   4.571253   5.447086   6.709628
    36  O    6.086359   6.877163   4.112750   5.124697   6.141056
    37  H    6.944861   7.834172   4.427552   5.359443   6.409309
                   21         22         23         24         25
    21  C    0.000000
    22  O    2.197047   0.000000
    23  C    2.638309   2.416587   0.000000
    24  H    2.988072   3.153782   1.094307   0.000000
    25  H    2.994889   3.135135   1.094856   1.756791   0.000000
    26  H    3.465122   2.485691   1.091964   1.791954   1.787854
    27  C    6.376352   4.296303   6.047533   6.610558   6.874914
    28  H    6.516460   4.394422   5.749158   6.246872   6.589199
    29  H    5.975221   3.864374   5.735961   6.449008   6.444214
    30  H    7.418135   5.359908   7.136178   7.695770   7.950330
    31  N    1.442164   3.592544   3.260996   3.290494   3.318729
    32  O    2.279650   4.460000   4.473399   4.486620   4.513571
    33  O    2.274061   4.089363   2.942249   2.748945   2.794036
    34  Cl   4.681031   4.003436   6.074054   6.948819   6.308277
    35  H    6.718806   5.501539   7.913073   8.592324   8.536677
    36  O    6.296134   4.885441   7.262680   8.009820   7.850655
    37  H    6.522280   5.207074   7.528682   8.357538   7.996335
                   26         27         28         29         30
    26  H    0.000000
    27  C    5.378189   0.000000
    28  H    4.948944   1.093603   0.000000
    29  H    5.101090   1.091878   1.788567   0.000000
    30  H    6.442548   1.094345   1.755251   1.787131   0.000000
    31  N    4.290714   7.788411   7.879227   7.410793   8.836837
    32  O    5.480335   8.513375   8.721915   8.125370   9.518498
    33  O    4.034043   8.293452   8.229521   7.947506   9.373713
    34  Cl   6.176689   5.473145   6.209309   4.595766   6.072171
    35  H    7.756714   4.314684   5.386462   3.920434   4.373154
    36  O    7.036892   3.702470   4.739560   3.132296   3.859442
    37  H    7.329990   4.395794   5.379662   3.652627   4.553059
                   31         32         33         34         35
    31  N    0.000000
    32  O    1.227900   0.000000
    33  O    1.228888   2.193660   0.000000
    34  Cl   5.804638   5.966213   6.743819   0.000000
    35  H    8.007072   8.158655   8.992603   3.489238   0.000000
    36  O    7.641816   7.915413   8.554060   2.999932   0.976394
    37  H    7.827416   8.067405   8.744713   2.564013   1.564548
                   36         37
    36  O    0.000000
    37  H    0.983379   0.000000
 Stoichiometry    C10H14ClN4O7Pt(1+)
 Framework group  C1[X(C10H14ClN4O7Pt)]
 Deg. of freedom   105
 Full point group                 C1      NOp   1
 Largest Abelian subgroup         C1      NOp   1
 Largest concise Abelian subgroup C1      NOp   1
                         Standard orientation:                         
 ---------------------------------------------------------------------
 Center     Atomic      Atomic             Coordinates (Angstroms)
 Number     Number       Type             X           Y           Z
 ---------------------------------------------------------------------
      1         78           0        0.068570   -1.408742    0.014706
      2          7           0       -1.537066   -0.123735    0.186509
      3          6           0       -2.562303    0.191929   -0.586154
      4          6           0       -2.748133    1.365313    1.331058
      5          6           0       -3.357034    1.139707    0.119019
      6          8           0       -1.642210    0.604381    1.382654
      7          6           0       -3.049374    2.216975    2.507540
      8          1           0       -2.284057    2.086025    3.275389
      9          1           0       -3.100660    3.268265    2.207098
     10          1           0       -4.032067    1.958804    2.914891
     11          6           0        2.768206   -0.123257    1.918841
     12          1           0        3.743115   -0.613295    1.833298
     13          1           0        2.864820    0.651697    2.683921
     14          1           0        2.021867   -0.861233    2.215933
     15          7           0       -4.574504    1.760575   -0.340250
     16          8           0       -4.979772    1.435169   -1.453283
     17          8           0       -5.103864    2.564699    0.423370
     18          7           0        1.357883    0.111384   -0.097174
     19          6           0        2.403853    0.495925    0.613965
     20          6           0        2.316513    1.750719   -1.261139
     21          6           0        3.033776    1.550600   -0.105661
     22          8           0        1.292438    0.880258   -1.265576
     23          6           0        2.437933    2.667418   -2.420475
     24          1           0        2.425819    3.707913   -2.081758
     25          1           0        3.399680    2.509362   -2.919245
     26          1           0        1.624054    2.493442   -3.127383
     27          6           0       -2.753116   -0.398011   -1.942141
     28          1           0       -2.838033    0.398864   -2.686283
     29          1           0       -1.919682   -1.055811   -2.196868
     30          1           0       -3.690672   -0.961386   -1.976612
     31          7           0        4.207894    2.287629    0.291921
     32          8           0        4.722975    1.980738    1.363484
     33          8           0        4.591835    3.164489   -0.478709
     34         17           0        1.769741   -2.955047   -0.221488
     35          1           0       -1.484870   -3.299932    0.988201
     36          8           0       -1.212400   -3.094749    0.073321
     37          1           0       -0.636768   -3.839783   -0.210588
 ---------------------------------------------------------------------
 Rotational constants (GHZ):           0.2341593           0.1320292           0.1011874
 General basis read from cards:  (5D, 7F)
 ======================================================================================================
                                       Pseudopotential Parameters
 ======================================================================================================
  Center     Atomic      Valence      Angular      Power
  Number     Number     Electrons     Momentum     of R      Exponent        Coefficient   SO-Coeffient
 ======================================================================================================
    1         78           18
                                      H and up 
                                                     2        1.0000000        0.00000000    0.00000000
                                      S - H
                                                     2       13.4286510      579.22386100    0.00000000
                                                     2        6.7143260       29.66949100    0.00000000
                                      P - H
                                                     2       10.3659440      280.86077400    0.00000000
                                                     2        5.1829720       26.74538200    0.00000000
                                      D - H
                                                     2        7.6004790      120.39644400    0.00000000
                                                     2        3.8002400       15.81092100    0.00000000
                                      F - H
                                                     2        3.3095690       24.31437600    0.00000000
                                      G - H
                                                     2        5.2772890      -24.21867500    0.00000000
    2          7
                                   No pseudopotential on this center.
    3          6
                                   No pseudopotential on this center.
    4          6
                                   No pseudopotential on this center.
    5          6
                                   No pseudopotential on this center.
    6          8
                                   No pseudopotential on this center.
    7          6
                                   No pseudopotential on this center.
    8          1
                                   No pseudopotential on this center.
    9          1
                                   No pseudopotential on this center.
   10          1
                                   No pseudopotential on this center.
   11          6
                                   No pseudopotential on this center.
   12          1
                                   No pseudopotential on this center.
   13          1
                                   No pseudopotential on this center.
   14          1
                                   No pseudopotential on this center.
   15          7
                                   No pseudopotential on this center.
   16          8
                                   No pseudopotential on this center.
   17          8
                                   No pseudopotential on this center.
   18          7
                                   No pseudopotential on this center.
   19          6
                                   No pseudopotential on this center.
   20          6
                                   No pseudopotential on this center.
   21          6
                                   No pseudopotential on this center.
   22          8
                                   No pseudopotential on this center.
   23          6
                                   No pseudopotential on this center.
   24          1
                                   No pseudopotential on this center.
   25          1
                                   No pseudopotential on this center.
   26          1
                                   No pseudopotential on this center.
   27          6
                                   No pseudopotential on this center.
   28          1
                                   No pseudopotential on this center.
   29          1
                                   No pseudopotential on this center.
   30          1
                                   No pseudopotential on this center.
   31          7
                                   No pseudopotential on this center.
   32          8
                                   No pseudopotential on this center.
   33          8
                                   No pseudopotential on this center.
   34         17
                                   No pseudopotential on this center.
   35          1
                                   No pseudopotential on this center.
   36          8
                                   No pseudopotential on this center.
   37          1
                                   No pseudopotential on this center.
 ======================================================================================================
 There are   401 symmetry adapted cartesian basis functions of A   symmetry.
 There are   376 symmetry adapted basis functions of A   symmetry.
   376 basis functions,   761 primitive gaussians,   401 cartesian basis functions
    96 alpha electrons       96 beta electrons
       nuclear repulsion energy      2446.6907123278 Hartrees.
 NAtoms=   37 NActive=   37 NUniq=   37 SFac= 1.00D+00 NAtFMM=   60 NAOKFM=F Big=F
 Integral buffers will be    131072 words long.
 Raffenetti 2 integral format.
 Two-electron integral symmetry is turned on.
 One-electron integrals computed using PRISM.
   1 Symmetry operations used in ECPInt.
 ECPInt:  NShTT=    8646 NPrTT=   53439 LenC2=    7399 LenP2D=   25574.
 LDataN:  DoStor=T MaxTD1= 7 Len=  274
 Number of processors reduced to  27 by ecpmxn.
 NBasis=   376 RedAO= T EigKep=  7.05D-04  NBF=   376
 NBsUse=   376 1.00D-06 EigRej= -1.00D+00 NBFU=   376
 Defaulting to unpruned grid for atomic number  78.
 Initial guess from the checkpoint file:  "CIX_small_opt.chk"
 B after Tr=     0.000000   -0.000000    0.000000
         Rot=    1.000000   -0.000000    0.000000    0.000000 Ang=   0.00 deg.
 Requested convergence on RMS density matrix=1.00D-08 within 128 cycles.
 Requested convergence on MAX density matrix=1.00D-06.
 Requested convergence on             energy=1.00D-06.
 No special actions if energy rises.
 Defaulting to unpruned grid for atomic number  78.
 Defaulting to unpruned grid for atomic number  78.
 Defaulting to unpruned grid for atomic number  78.
 Defaulting to unpruned grid for atomic number  78.
 Defaulting to unpruned grid for atomic number  78.
 Defaulting to unpruned grid for atomic number  78.
 Defaulting to unpruned grid for atomic number  78.
 Defaulting to unpruned grid for atomic number  78.
 Defaulting to unpruned grid for atomic number  78.
 Defaulting to unpruned grid for atomic number  78.
 Defaulting to unpruned grid for atomic number  78.
 Defaulting to unpruned grid for atomic number  78.
 Defaulting to unpruned grid for atomic number  78.
 Defaulting to unpruned grid for atomic number  78.
 Defaulting to unpruned grid for atomic number  78.
 Defaulting to unpruned grid for atomic number  78.
 Defaulting to unpruned grid for atomic number  78.
 Defaulting to unpruned grid for atomic number  78.
 Defaulting to unpruned grid for atomic number  78.
 Defaulting to unpruned grid for atomic number  78.
 Defaulting to unpruned grid for atomic number  78.
 Defaulting to unpruned grid for atomic number  78.
 Defaulting to unpruned grid for atomic number  78.
 Defaulting to unpruned grid for atomic number  78.
 Defaulting to unpruned grid for atomic number  78.
 Defaulting to unpruned grid for atomic number  78.
 Defaulting to unpruned grid for atomic number  78.
 Defaulting to unpruned grid for atomic number  78.
 Defaulting to unpruned grid for atomic number  78.
 Defaulting to unpruned grid for atomic number  78.
 Defaulting to unpruned grid for atomic number  78.
 Defaulting to unpruned grid for atomic number  78.
 Defaulting to unpruned grid for atomic number  78.
 Defaulting to unpruned grid for atomic number  78.
 Defaulting to unpruned grid for atomic number  78.
 Defaulting to unpruned grid for atomic number  78.
 Defaulting to unpruned grid for atomic number  78.
 Defaulting to unpruned grid for atomic number  78.
 Defaulting to unpruned grid for atomic number  78.
 Defaulting to unpruned grid for atomic number  78.
 Defaulting to unpruned grid for atomic number  78.
 Defaulting to unpruned grid for atomic number  78.
 Defaulting to unpruned grid for atomic number  78.
 Defaulting to unpruned grid for atomic number  78.
 Defaulting to unpruned grid for atomic number  78.
 Defaulting to unpruned grid for atomic number  78.
 Defaulting to unpruned grid for atomic number  78.
 Defaulting to unpruned grid for atomic number  78.
 SCF Done:  E(RB3LYP) =  -1714.20361295     A.U. after    1 cycles
            NFock=  1  Conv=0.73D-08     -V/T= 2.0535
 DoSCS=F DFT=T ScalE2(SS,OS)=  1.000000  1.000000
 Range of M.O.s used for correlation:     1   376
 NBasis=   376 NAE=    96 NBE=    96 NFC=     0 NFV=     0
 NROrb=    376 NOA=    96 NOB=    96 NVA=   280 NVB=   280
 PrsmSu:  requested number of processors reduced to:  34 ShMem   1 Linda.
   1 Symmetry operations used in ECPInt.
 ECPInt:  NShTT=    8646 NPrTT=   53439 LenC2=    7399 LenP2D=   25574.
 LDataN:  DoStor=T MaxTD1= 8 Len=  415
 Number of processors reduced to   6 by ecpmxn.
 Symmetrizing basis deriv contribution to polar:
 IMax=3 JMax=2 DiffMx= 0.00D+00
 G2DrvN: will do    19 centers at a time, making    2 passes.
 Calling FoFCou, ICntrl=  3107 FMM=F I1Cent=   0 AccDes= 0.00D+00.
 Defaulting to unpruned grid for atomic number  78.
 Defaulting to unpruned grid for atomic number  78.
 Defaulting to unpruned grid for atomic number  78.
 Defaulting to unpruned grid for atomic number  78.
 Defaulting to unpruned grid for atomic number  78.
 Defaulting to unpruned grid for atomic number  78.
 Defaulting to unpruned grid for atomic number  78.
 Defaulting to unpruned grid for atomic number  78.
 Defaulting to unpruned grid for atomic number  78.
 Defaulting to unpruned grid for atomic number  78.
 Defaulting to unpruned grid for atomic number  78.
 Defaulting to unpruned grid for atomic number  78.
 Defaulting to unpruned grid for atomic number  78.
 Defaulting to unpruned grid for atomic number  78.
 Defaulting to unpruned grid for atomic number  78.
 Defaulting to unpruned grid for atomic number  78.
 Defaulting to unpruned grid for atomic number  78.
 Defaulting to unpruned grid for atomic number  78.
 Defaulting to unpruned grid for atomic number  78.
 Defaulting to unpruned grid for atomic number  78.
 Defaulting to unpruned grid for atomic number  78.
 Defaulting to unpruned grid for atomic number  78.
 Defaulting to unpruned grid for atomic number  78.
 Defaulting to unpruned grid for atomic number  78.
 Defaulting to unpruned grid for atomic number  78.
 Defaulting to unpruned grid for atomic number  78.
 Defaulting to unpruned grid for atomic number  78.
 Defaulting to unpruned grid for atomic number  78.
 Defaulting to unpruned grid for atomic number  78.
 Defaulting to unpruned grid for atomic number  78.
 Defaulting to unpruned grid for atomic number  78.
 Defaulting to unpruned grid for atomic number  78.
 Defaulting to unpruned grid for atomic number  78.
 Defaulting to unpruned grid for atomic number  78.
 Defaulting to unpruned grid for atomic number  78.
 Defaulting to unpruned grid for atomic number  78.
 Defaulting to unpruned grid for atomic number  78.
 Defaulting to unpruned grid for atomic number  78.
 Defaulting to unpruned grid for atomic number  78.
 Defaulting to unpruned grid for atomic number  78.
 Defaulting to unpruned grid for atomic number  78.
 Defaulting to unpruned grid for atomic number  78.
 Defaulting to unpruned grid for atomic number  78.
 Defaulting to unpruned grid for atomic number  78.
 Defaulting to unpruned grid for atomic number  78.
 Defaulting to unpruned grid for atomic number  78.
 Defaulting to unpruned grid for atomic number  78.
 Defaulting to unpruned grid for atomic number  78.
 Calling FoFCou, ICntrl=  3107 FMM=F I1Cent=   0 AccDes= 0.00D+00.
 End of G2Drv F.D. properties file   721 does not exist.
 End of G2Drv F.D. properties file   722 does not exist.
 End of G2Drv F.D. properties file   788 does not exist.
          IDoAtm=1111111111111111111111111111111111111
          Differentiating once with respect to electric field.
                with respect to dipole field.
          Differentiating once with respect to nuclear coordinates.
 Defaulting to unpruned grid for atomic number  78.
 CalDSu exits because no D1Ps are significant.
 Defaulting to unpruned grid for atomic number  78.
 Defaulting to unpruned grid for atomic number  78.
 Defaulting to unpruned grid for atomic number  78.
 Defaulting to unpruned grid for atomic number  78.
 Defaulting to unpruned grid for atomic number  78.
 Defaulting to unpruned grid for atomic number  78.
 Defaulting to unpruned grid for atomic number  78.
 Defaulting to unpruned grid for atomic number  78.
 Defaulting to unpruned grid for atomic number  78.
 Defaulting to unpruned grid for atomic number  78.
 Defaulting to unpruned grid for atomic number  78.
 Defaulting to unpruned grid for atomic number  78.
 Defaulting to unpruned grid for atomic number  78.
 Defaulting to unpruned grid for atomic number  78.
 Defaulting to unpruned grid for atomic number  78.
 Defaulting to unpruned grid for atomic number  78.
 Defaulting to unpruned grid for atomic number  78.
 Defaulting to unpruned grid for atomic number  78.
 Defaulting to unpruned grid for atomic number  78.
 Defaulting to unpruned grid for atomic number  78.
 Defaulting to unpruned grid for atomic number  78.
 Defaulting to unpruned grid for atomic number  78.
 Defaulting to unpruned grid for atomic number  78.
 Defaulting to unpruned grid for atomic number  78.
 Defaulting to unpruned grid for atomic number  78.
 Defaulting to unpruned grid for atomic number  78.
 Defaulting to unpruned grid for atomic number  78.
 Defaulting to unpruned grid for atomic number  78.
 Defaulting to unpruned grid for atomic number  78.
 Defaulting to unpruned grid for atomic number  78.
 Defaulting to unpruned grid for atomic number  78.
 Defaulting to unpruned grid for atomic number  78.
 Defaulting to unpruned grid for atomic number  78.
 Defaulting to unpruned grid for atomic number  78.
 Defaulting to unpruned grid for atomic number  78.
 Defaulting to unpruned grid for atomic number  78.
 Defaulting to unpruned grid for atomic number  78.
 Defaulting to unpruned grid for atomic number  78.
 Defaulting to unpruned grid for atomic number  78.
 Defaulting to unpruned grid for atomic number  78.
 Defaulting to unpruned grid for atomic number  78.
 Defaulting to unpruned grid for atomic number  78.
 Defaulting to unpruned grid for atomic number  78.
 Defaulting to unpruned grid for atomic number  78.
 Defaulting to unpruned grid for atomic number  78.
 Defaulting to unpruned grid for atomic number  78.
 Defaulting to unpruned grid for atomic number  78.
 Defaulting to unpruned grid for atomic number  78.
          There are   114 degrees of freedom in the 1st order CPHF.  IDoFFX=6 NUNeed=     3.
    114 vectors produced by pass  0 Test12= 2.69D-14 1.00D-09 XBig12= 2.32D+02 5.65D+00.
 AX will form    28 AO Fock derivatives at one time.
    114 vectors produced by pass  1 Test12= 2.69D-14 1.00D-09 XBig12= 1.64D+02 4.04D+00.
    114 vectors produced by pass  2 Test12= 2.69D-14 1.00D-09 XBig12= 9.54D-01 1.24D-01.
    111 vectors produced by pass  3 Test12= 2.69D-14 1.00D-09 XBig12= 4.58D-03 9.61D-03.
    111 vectors produced by pass  4 Test12= 2.69D-14 1.00D-09 XBig12= 9.69D-06 3.57D-04.
    110 vectors produced by pass  5 Test12= 2.69D-14 1.00D-09 XBig12= 1.13D-08 1.04D-05.
     28 vectors produced by pass  6 Test12= 2.69D-14 1.00D-09 XBig12= 1.15D-11 2.52D-07.
      3 vectors produced by pass  7 Test12= 2.69D-14 1.00D-09 XBig12= 1.04D-14 8.64D-09.
 InvSVY:  IOpt=1 It=  1 EMax= 1.78D-14
 Solved reduced A of dimension   705 with   114 vectors.
 Isotropic polarizability for W=    0.000000      209.71 Bohr**3.
 End of Minotr F.D. properties file   721 does not exist.
 End of Minotr F.D. properties file   722 does not exist.
 End of Minotr F.D. properties file   788 does not exist.

 **********************************************************************

            Population analysis using the SCF Density.

 **********************************************************************

 Orbital symmetries:
       Occupied  (A) (A) (A) (A) (A) (A) (A) (A) (A) (A) (A) (A)
                 (A) (A) (A) (A) (A) (A) (A) (A) (A) (A) (A) (A)
                 (A) (A) (A) (A) (A) (A) (A) (A) (A) (A) (A) (A)
                 (A) (A) (A) (A) (A) (A) (A) (A) (A) (A) (A) (A)
                 (A) (A) (A) (A) (A) (A) (A) (A) (A) (A) (A) (A)
                 (A) (A) (A) (A) (A) (A) (A) (A) (A) (A) (A) (A)
                 (A) (A) (A) (A) (A) (A) (A) (A) (A) (A) (A) (A)
                 (A) (A) (A) (A) (A) (A) (A) (A) (A) (A) (A) (A)
       Virtual   (A) (A) (A) (A) (A) (A) (A) (A) (A) (A) (A) (A)
                 (A) (A) (A) (A) (A) (A) (A) (A) (A) (A) (A) (A)
                 (A) (A) (A) (A) (A) (A) (A) (A) (A) (A) (A) (A)
                 (A) (A) (A) (A) (A) (A) (A) (A) (A) (A) (A) (A)
                 (A) (A) (A) (A) (A) (A) (A) (A) (A) (A) (A) (A)
                 (A) (A) (A) (A) (A) (A) (A) (A) (A) (A) (A) (A)
                 (A) (A) (A) (A) (A) (A) (A) (A) (A) (A) (A) (A)
                 (A) (A) (A) (A) (A) (A) (A) (A) (A) (A) (A) (A)
                 (A) (A) (A) (A) (A) (A) (A) (A) (A) (A) (A) (A)
                 (A) (A) (A) (A) (A) (A) (A) (A) (A) (A) (A) (A)
                 (A) (A) (A) (A) (A) (A) (A) (A) (A) (A) (A) (A)
                 (A) (A) (A) (A) (A) (A) (A) (A) (A) (A) (A) (A)
                 (A) (A) (A) (A) (A) (A) (A) (A) (A) (A) (A) (A)
                 (A) (A) (A) (A) (A) (A) (A) (A) (A) (A) (A) (A)
                 (A) (A) (A) (A) (A) (A) (A) (A) (A) (A) (A) (A)
                 (A) (A) (A) (A) (A) (A) (A) (A) (A) (A) (A) (A)
                 (A) (A) (A) (A) (A) (A) (A) (A) (A) (A) (A) (A)
                 (A) (A) (A) (A) (A) (A) (A) (A) (A) (A) (A) (A)
                 (A) (A) (A) (A) (A) (A) (A) (A) (A) (A) (A) (A)
                 (A) (A) (A) (A) (A) (A) (A) (A) (A) (A) (A) (A)
                 (A) (A) (A) (A) (A) (A) (A) (A) (A) (A) (A) (A)
                 (A) (A) (A) (A) (A) (A) (A) (A) (A) (A) (A) (A)
                 (A) (A) (A) (A) (A) (A) (A) (A) (A) (A) (A) (A)
                 (A) (A) (A) (A)
 The electronic state is 1-A.
 Alpha  occ. eigenvalues -- -101.61604 -19.41879 -19.41758 -19.38348 -19.30544
 Alpha  occ. eigenvalues --  -19.30504 -19.30136 -19.30084 -14.70389 -14.69983
 Alpha  occ. eigenvalues --  -14.60018 -14.59544 -10.44467 -10.44178 -10.42184
 Alpha  occ. eigenvalues --  -10.41999 -10.39377 -10.39031 -10.33293 -10.32988
 Alpha  occ. eigenvalues --  -10.32929 -10.32254  -9.54606  -7.30746  -7.30069
 Alpha  occ. eigenvalues --   -7.30024  -4.10895  -2.36842  -2.36243  -2.31923
 Alpha  occ. eigenvalues --   -1.35605  -1.35207  -1.33155  -1.33061  -1.23671
 Alpha  occ. eigenvalues --   -1.18370  -1.17967  -1.07461  -1.07358  -1.00463
 Alpha  occ. eigenvalues --   -1.00220  -0.90560  -0.90275  -0.89987  -0.88450
 Alpha  occ. eigenvalues --   -0.88091  -0.85244  -0.84992  -0.76354  -0.76247
 Alpha  occ. eigenvalues --   -0.74955  -0.73878  -0.73724  -0.68691  -0.68525
 Alpha  occ. eigenvalues --   -0.67770  -0.67290  -0.66325  -0.65075  -0.64662
 Alpha  occ. eigenvalues --   -0.64280  -0.63319  -0.63059  -0.62592  -0.60028
 Alpha  occ. eigenvalues --   -0.59536  -0.58277  -0.57956  -0.57477  -0.57128
 Alpha  occ. eigenvalues --   -0.57037  -0.56754  -0.55857  -0.55584  -0.55105
 Alpha  occ. eigenvalues --   -0.54766  -0.54297  -0.53252  -0.52610  -0.50616
 Alpha  occ. eigenvalues --   -0.47815  -0.47391  -0.46308  -0.45494  -0.44253
 Alpha  occ. eigenvalues --   -0.43424  -0.43375  -0.43317  -0.42994  -0.42916
 Alpha  occ. eigenvalues --   -0.42133  -0.41966  -0.41646  -0.40585  -0.39655
 Alpha  occ. eigenvalues --   -0.38623
 Alpha virt. eigenvalues --   -0.21682  -0.21121  -0.20708  -0.18864  -0.18295
 Alpha virt. eigenvalues --   -0.14880  -0.13018  -0.10942  -0.08952  -0.08856
 Alpha virt. eigenvalues --   -0.08356  -0.07891  -0.07193  -0.06018  -0.04516
 Alpha virt. eigenvalues --   -0.04328  -0.02982  -0.02309  -0.02018  -0.00691
 Alpha virt. eigenvalues --    0.00118   0.00165   0.01994   0.02088   0.02948
 Alpha virt. eigenvalues --    0.03537   0.04210   0.04342   0.04831   0.05750
 Alpha virt. eigenvalues --    0.06190   0.06666   0.06906   0.07233   0.07883
 Alpha virt. eigenvalues --    0.07978   0.08771   0.09086   0.10690   0.10892
 Alpha virt. eigenvalues --    0.12003   0.12860   0.13620   0.14022   0.15592
 Alpha virt. eigenvalues --    0.16115   0.16836   0.18892   0.19769   0.25081
 Alpha virt. eigenvalues --    0.25825   0.26585   0.27192   0.33153   0.34128
 Alpha virt. eigenvalues --    0.34801   0.35296   0.35969   0.37134   0.37432
 Alpha virt. eigenvalues --    0.38329   0.39073   0.39745   0.40239   0.41452
 Alpha virt. eigenvalues --    0.42570   0.43413   0.43944   0.45358   0.46009
 Alpha virt. eigenvalues --    0.47020   0.47487   0.47857   0.48397   0.49020
 Alpha virt. eigenvalues --    0.49971   0.52035   0.52509   0.53427   0.53480
 Alpha virt. eigenvalues --    0.54436   0.54988   0.55551   0.55642   0.56923
 Alpha virt. eigenvalues --    0.58284   0.58595   0.60319   0.61059   0.61507
 Alpha virt. eigenvalues --    0.62536   0.64401   0.65926   0.67006   0.67333
 Alpha virt. eigenvalues --    0.67788   0.68547   0.68965   0.70354   0.70974
 Alpha virt. eigenvalues --    0.71909   0.72061   0.72626   0.73240   0.73994
 Alpha virt. eigenvalues --    0.74566   0.75701   0.76292   0.76640   0.77776
 Alpha virt. eigenvalues --    0.78464   0.78627   0.78675   0.79519   0.79788
 Alpha virt. eigenvalues --    0.80959   0.81560   0.81812   0.83341   0.83537
 Alpha virt. eigenvalues --    0.85031   0.85280   0.85523   0.86010   0.86296
 Alpha virt. eigenvalues --    0.87230   0.87891   0.89493   0.89850   0.90194
 Alpha virt. eigenvalues --    0.90644   0.90988   0.91203   0.91894   0.93333
 Alpha virt. eigenvalues --    0.93994   0.96034   0.97400   0.98363   0.99883
 Alpha virt. eigenvalues --    1.01914   1.02545   1.02952   1.04833   1.05652
 Alpha virt. eigenvalues --    1.06649   1.08045   1.09277   1.11776   1.12430
 Alpha virt. eigenvalues --    1.16079   1.16584   1.18004   1.18022   1.18805
 Alpha virt. eigenvalues --    1.19965   1.21018   1.21786   1.22880   1.24086
 Alpha virt. eigenvalues --    1.27319   1.27683   1.27981   1.28233   1.29418
 Alpha virt. eigenvalues --    1.30596   1.33782   1.36504   1.37257   1.39167
 Alpha virt. eigenvalues --    1.41987   1.44216   1.45180   1.47687   1.48217
 Alpha virt. eigenvalues --    1.49489   1.51220   1.52543   1.55784   1.55927
 Alpha virt. eigenvalues --    1.56343   1.56697   1.56926   1.57587   1.58256
 Alpha virt. eigenvalues --    1.64390   1.65852   1.66369   1.67404   1.67606
 Alpha virt. eigenvalues --    1.68152   1.68230   1.68628   1.68684   1.68979
 Alpha virt. eigenvalues --    1.70206   1.73021   1.73545   1.75597   1.75948
 Alpha virt. eigenvalues --    1.77834   1.78520   1.82225   1.82586   1.83060
 Alpha virt. eigenvalues --    1.83730   1.84003   1.85698   1.86914   1.88123
 Alpha virt. eigenvalues --    1.89678   1.91540   1.91954   1.93924   1.96036
 Alpha virt. eigenvalues --    1.96821   1.98154   1.98874   1.99213   2.00346
 Alpha virt. eigenvalues --    2.00650   2.00715   2.02344   2.06211   2.06452
 Alpha virt. eigenvalues --    2.09875   2.10082   2.10751   2.11396   2.11630
 Alpha virt. eigenvalues --    2.12556   2.12790   2.15989   2.16964   2.22320
 Alpha virt. eigenvalues --    2.22670   2.23113   2.23603   2.27818   2.28083
 Alpha virt. eigenvalues --    2.29559   2.30212   2.30655   2.31605   2.38638
 Alpha virt. eigenvalues --    2.39024   2.39739   2.41705   2.42319   2.45840
 Alpha virt. eigenvalues --    2.46090   2.46457   2.46964   2.57019   2.57476
 Alpha virt. eigenvalues --    2.58310   2.58526   2.65333   2.67206   2.68991
 Alpha virt. eigenvalues --    2.70750   2.71929   2.73532   2.74561   2.79127
 Alpha virt. eigenvalues --    2.79615   2.81114   2.82810   2.88678   2.88924
 Alpha virt. eigenvalues --    2.90874   2.93682   3.08702   3.09087   3.16484
 Alpha virt. eigenvalues --    3.17224  45.66574  45.87900  45.91748 114.12435
          Condensed to atoms (all electrons):
               1          2          3          4          5          6
     1  Pt  17.174805   0.034679  -0.028980  -0.003945   0.002432   0.007272
     2  N    0.034679   6.848080   0.411206  -0.102247  -0.000305   0.169463
     3  C   -0.028980   0.411206   4.739603  -0.050578   0.370747  -0.089032
     4  C   -0.003945  -0.102247  -0.050578   4.788777   0.403393   0.249013
     5  C    0.002432  -0.000305   0.370747   0.403393   5.232544  -0.009216
     6  O    0.007272   0.169463  -0.089032   0.249013  -0.009216   8.021994
     7  C   -0.000903   0.004151   0.005118   0.390777  -0.057402  -0.048755
     8  H    0.001532   0.000026  -0.000042  -0.022676   0.005758  -0.001936
     9  H    0.000043  -0.000066   0.000042  -0.021444  -0.004753   0.001041
    10  H    0.000024  -0.000070   0.000073  -0.021680  -0.004677   0.000978
    11  C    0.011117   0.000060   0.000002  -0.000001  -0.000000  -0.000022
    12  H    0.001166  -0.000000   0.000000   0.000000  -0.000000  -0.000000
    13  H    0.001970   0.000002  -0.000000  -0.000000   0.000000  -0.000007
    14  H    0.009340  -0.000001  -0.000000   0.000000  -0.000000  -0.000059
    15  N    0.000725   0.004420  -0.044151  -0.049838   0.183342   0.002347
    16  O   -0.000120   0.000112  -0.016299   0.004543  -0.074582  -0.000030
    17  O   -0.000048  -0.000033   0.004441  -0.017353  -0.075959   0.000000
    18  N    0.102459  -0.009196   0.000021   0.000157  -0.000044   0.000074
    19  C   -0.031460  -0.000260  -0.000003   0.000005  -0.000000  -0.000063
    20  C   -0.003303   0.000165   0.000011  -0.000000   0.000002  -0.000027
    21  C    0.000436  -0.000046  -0.000004   0.000001  -0.000000   0.000011
    22  O    0.000527  -0.000231  -0.000022  -0.000030   0.000011  -0.000046
    23  C   -0.000926   0.000000   0.000000  -0.000000   0.000000  -0.000000
    24  H    0.000103  -0.000000   0.000000  -0.000000  -0.000000  -0.000000
    25  H   -0.000036   0.000000  -0.000000   0.000000   0.000000  -0.000000
    26  H    0.001616  -0.000001  -0.000001  -0.000000   0.000000  -0.000000
    27  C    0.009071  -0.049447   0.374528   0.007130  -0.052042   0.003398
    28  H    0.001931   0.001531  -0.020360  -0.000051  -0.004785  -0.000044
    29  H    0.009531  -0.004634  -0.022974   0.000053   0.004879  -0.000022
    30  H    0.000945   0.000909  -0.019952  -0.000078  -0.004000  -0.000045
    31  N    0.000934  -0.000000  -0.000000   0.000000   0.000000   0.000000
    32  O   -0.000120  -0.000000  -0.000000  -0.000000   0.000000  -0.000000
    33  O   -0.000086  -0.000000  -0.000000   0.000000   0.000000  -0.000000
    34  Cl   0.296651  -0.004427   0.000031  -0.000003   0.000003   0.000034
    35  H   -0.008908   0.000377   0.000083  -0.000000   0.000000  -0.000004
    36  O    0.142453  -0.003318  -0.000310  -0.000006   0.000017  -0.000025
    37  H   -0.007782   0.000405  -0.000075   0.000000  -0.000001   0.000004
               7          8          9         10         11         12
     1  Pt  -0.000903   0.001532   0.000043   0.000024   0.011117   0.001166
     2  N    0.004151   0.000026  -0.000066  -0.000070   0.000060  -0.000000
     3  C    0.005118  -0.000042   0.000042   0.000073   0.000002   0.000000
     4  C    0.390777  -0.022676  -0.021444  -0.021680  -0.000001   0.000000
     5  C   -0.057402   0.005758  -0.004753  -0.004677  -0.000000  -0.000000
     6  O   -0.048755  -0.001936   0.001041   0.000978  -0.000022  -0.000000
     7  C    5.145853   0.350559   0.366670   0.367554   0.000000  -0.000000
     8  H    0.350559   0.498635  -0.021038  -0.020782  -0.000000  -0.000000
     9  H    0.366670  -0.021038   0.464850  -0.021760   0.000000   0.000000
    10  H    0.367554  -0.020782  -0.021760   0.461802  -0.000000  -0.000000
    11  C    0.000000  -0.000000   0.000000  -0.000000   5.166261   0.363721
    12  H   -0.000000  -0.000000   0.000000  -0.000000   0.363721   0.456608
    13  H   -0.000000  -0.000000  -0.000000   0.000000   0.360468  -0.022970
    14  H   -0.000000  -0.000001   0.000000   0.000000   0.343413  -0.020489
    15  N   -0.005300  -0.000016   0.000491   0.000431   0.000000  -0.000000
    16  O    0.000065   0.000001   0.000003   0.000003  -0.000000   0.000000
    17  O    0.007471   0.000469   0.002324   0.002252  -0.000000  -0.000000
    18  N    0.000000  -0.000000  -0.000000   0.000000  -0.049650   0.000710
    19  C    0.000000  -0.000000   0.000000  -0.000000   0.380424  -0.019409
    20  C   -0.000000  -0.000000   0.000000   0.000000   0.006937  -0.000080
    21  C    0.000000   0.000000  -0.000000   0.000000  -0.051019  -0.003557
    22  O   -0.000000  -0.000000  -0.000000  -0.000000   0.003317  -0.000046
    23  C   -0.000000  -0.000000   0.000000  -0.000000  -0.000096   0.000000
    24  H    0.000000  -0.000000   0.000000  -0.000000   0.000001   0.000000
    25  H   -0.000000  -0.000000  -0.000000   0.000000   0.000001  -0.000000
    26  H   -0.000000   0.000000  -0.000000  -0.000000   0.000001  -0.000000
    27  C   -0.000099   0.000001   0.000001   0.000001   0.000000  -0.000000
    28  H   -0.000000  -0.000000  -0.000000   0.000000  -0.000000  -0.000000
    29  H    0.000001  -0.000000  -0.000000  -0.000000   0.000000   0.000000
    30  H    0.000000  -0.000000   0.000000  -0.000000  -0.000000   0.000000
    31  N    0.000000   0.000000  -0.000000   0.000000  -0.006110   0.000541
    32  O   -0.000000   0.000000   0.000000   0.000000   0.005392   0.001579
    33  O   -0.000000   0.000000   0.000000   0.000000   0.000056   0.000000
    34  Cl   0.000000   0.000000  -0.000000  -0.000000  -0.001052  -0.000204
    35  H   -0.000000   0.000000   0.000000   0.000000   0.000002  -0.000000
    36  O   -0.000000  -0.000000   0.000000  -0.000000   0.000003   0.000000
    37  H   -0.000000   0.000000   0.000000  -0.000000   0.000002   0.000000
              13         14         15         16         17         18
     1  Pt   0.001970   0.009340   0.000725  -0.000120  -0.000048   0.102459
     2  N    0.000002  -0.000001   0.004420   0.000112  -0.000033  -0.009196
     3  C   -0.000000  -0.000000  -0.044151  -0.016299   0.004441   0.000021
     4  C   -0.000000   0.000000  -0.049838   0.004543  -0.017353   0.000157
     5  C    0.000000  -0.000000   0.183342  -0.074582  -0.075959  -0.000044
     6  O   -0.000007  -0.000059   0.002347  -0.000030   0.000000   0.000074
     7  C   -0.000000  -0.000000  -0.005300   0.000065   0.007471   0.000000
     8  H   -0.000000  -0.000001  -0.000016   0.000001   0.000469  -0.000000
     9  H   -0.000000   0.000000   0.000491   0.000003   0.002324  -0.000000
    10  H    0.000000   0.000000   0.000431   0.000003   0.002252   0.000000
    11  C    0.360468   0.343413   0.000000  -0.000000  -0.000000  -0.049650
    12  H   -0.022970  -0.020489  -0.000000   0.000000  -0.000000   0.000710
    13  H    0.478937  -0.023254   0.000000   0.000000   0.000000   0.001727
    14  H   -0.023254   0.481706   0.000000   0.000000  -0.000000  -0.004777
    15  N    0.000000   0.000000   5.867072   0.336572   0.341364  -0.000000
    16  O    0.000000   0.000000   0.336572   8.176275  -0.082450  -0.000000
    17  O    0.000000  -0.000000   0.341364  -0.082450   8.174808  -0.000000
    18  N    0.001727  -0.004777  -0.000000  -0.000000  -0.000000   6.751028
    19  C   -0.020530  -0.021415  -0.000000  -0.000000  -0.000000   0.419581
    20  C   -0.000036   0.000046   0.000000  -0.000000   0.000000  -0.099118
    21  C   -0.005623   0.005106   0.000000   0.000000   0.000000  -0.000937
    22  O   -0.000044  -0.000027   0.000000  -0.000000  -0.000000   0.172992
    23  C    0.000000   0.000001   0.000000  -0.000000  -0.000000   0.004107
    24  H   -0.000000  -0.000000  -0.000000   0.000000   0.000000  -0.000064
    25  H    0.000000  -0.000000  -0.000000   0.000000   0.000000  -0.000054
    26  H   -0.000000  -0.000000   0.000000   0.000000   0.000000   0.000035
    27  C   -0.000000   0.000000  -0.005942   0.005838   0.000063   0.000032
    28  H   -0.000000   0.000000   0.000627   0.003203   0.000003   0.000001
    29  H    0.000000  -0.000000  -0.000027   0.000564   0.000001   0.000042
    30  H   -0.000000  -0.000000   0.000614   0.001983   0.000001  -0.000000
    31  N    0.000703  -0.000024   0.000000   0.000000  -0.000000   0.004301
    32  O    0.003745   0.000566   0.000000  -0.000000  -0.000000   0.000107
    33  O    0.000006   0.000001  -0.000000  -0.000000   0.000000  -0.000023
    34  Cl   0.000112  -0.003907   0.000000  -0.000000  -0.000000  -0.002880
    35  H    0.000000   0.000009  -0.000000   0.000000  -0.000000   0.000069
    36  O    0.000000  -0.000014  -0.000000   0.000000  -0.000000  -0.001229
    37  H   -0.000000   0.000012   0.000000   0.000000   0.000000   0.000105
              19         20         21         22         23         24
     1  Pt  -0.031460  -0.003303   0.000436   0.000527  -0.000926   0.000103
     2  N   -0.000260   0.000165  -0.000046  -0.000231   0.000000  -0.000000
     3  C   -0.000003   0.000011  -0.000004  -0.000022   0.000000   0.000000
     4  C    0.000005  -0.000000   0.000001  -0.000030  -0.000000  -0.000000
     5  C   -0.000000   0.000002  -0.000000   0.000011   0.000000  -0.000000
     6  O   -0.000063  -0.000027   0.000011  -0.000046  -0.000000  -0.000000
     7  C    0.000000  -0.000000   0.000000  -0.000000  -0.000000   0.000000
     8  H   -0.000000  -0.000000   0.000000  -0.000000  -0.000000  -0.000000
     9  H    0.000000   0.000000  -0.000000  -0.000000   0.000000   0.000000
    10  H   -0.000000   0.000000   0.000000  -0.000000  -0.000000  -0.000000
    11  C    0.380424   0.006937  -0.051019   0.003317  -0.000096   0.000001
    12  H   -0.019409  -0.000080  -0.003557  -0.000046   0.000000   0.000000
    13  H   -0.020530  -0.000036  -0.005623  -0.000044   0.000000  -0.000000
    14  H   -0.021415   0.000046   0.005106  -0.000027   0.000001  -0.000000
    15  N   -0.000000   0.000000   0.000000   0.000000   0.000000  -0.000000
    16  O   -0.000000  -0.000000   0.000000  -0.000000  -0.000000   0.000000
    17  O   -0.000000   0.000000   0.000000  -0.000000  -0.000000   0.000000
    18  N    0.419581  -0.099118  -0.000937   0.172992   0.004107  -0.000064
    19  C    4.706940  -0.055985   0.370953  -0.083749   0.005283   0.000027
    20  C   -0.055985   4.779994   0.408807   0.247557   0.391273  -0.021114
    21  C    0.370953   0.408807   5.233481  -0.009192  -0.057253  -0.004895
    22  O   -0.083749   0.247557  -0.009192   8.016950  -0.048745   0.001106
    23  C    0.005283   0.391273  -0.057253  -0.048745   5.146137   0.365927
    24  H    0.000027  -0.021114  -0.004895   0.001106   0.365927   0.466764
    25  H    0.000038  -0.021647  -0.004458   0.000900   0.367712  -0.021710
    26  H   -0.000036  -0.022619   0.005699  -0.002075   0.350420  -0.021287
    27  C    0.000002  -0.000002  -0.000000  -0.000020   0.000000  -0.000000
    28  H   -0.000000  -0.000001   0.000000  -0.000018  -0.000000  -0.000000
    29  H    0.000001   0.000000  -0.000001  -0.000121  -0.000000   0.000000
    30  H    0.000000   0.000000  -0.000000  -0.000000  -0.000000   0.000000
    31  N   -0.043336  -0.049922   0.183188   0.002343  -0.005448   0.000514
    32  O   -0.016034   0.004533  -0.074722  -0.000029   0.000065   0.000004
    33  O    0.004346  -0.017457  -0.076177   0.000001   0.007508   0.002575
    34  Cl  -0.002096   0.000035  -0.000258  -0.000409  -0.000001   0.000000
    35  H   -0.000004   0.000000  -0.000000   0.000000   0.000000  -0.000000
    36  O    0.000008  -0.000000   0.000000   0.000005   0.000000  -0.000000
    37  H   -0.000001   0.000000   0.000000   0.000000   0.000000   0.000000
              25         26         27         28         29         30
     1  Pt  -0.000036   0.001616   0.009071   0.001931   0.009531   0.000945
     2  N    0.000000  -0.000001  -0.049447   0.001531  -0.004634   0.000909
     3  C   -0.000000  -0.000001   0.374528  -0.020360  -0.022974  -0.019952
     4  C    0.000000  -0.000000   0.007130  -0.000051   0.000053  -0.000078
     5  C    0.000000   0.000000  -0.052042  -0.004785   0.004879  -0.004000
     6  O   -0.000000  -0.000000   0.003398  -0.000044  -0.000022  -0.000045
     7  C   -0.000000  -0.000000  -0.000099  -0.000000   0.000001   0.000000
     8  H   -0.000000   0.000000   0.000001  -0.000000  -0.000000  -0.000000
     9  H   -0.000000  -0.000000   0.000001  -0.000000  -0.000000   0.000000
    10  H    0.000000  -0.000000   0.000001   0.000000  -0.000000  -0.000000
    11  C    0.000001   0.000001   0.000000  -0.000000   0.000000  -0.000000
    12  H   -0.000000  -0.000000  -0.000000  -0.000000   0.000000   0.000000
    13  H    0.000000  -0.000000  -0.000000  -0.000000   0.000000  -0.000000
    14  H   -0.000000  -0.000000   0.000000   0.000000  -0.000000  -0.000000
    15  N   -0.000000   0.000000  -0.005942   0.000627  -0.000027   0.000614
    16  O    0.000000   0.000000   0.005838   0.003203   0.000564   0.001983
    17  O    0.000000   0.000000   0.000063   0.000003   0.000001   0.000001
    18  N   -0.000054   0.000035   0.000032   0.000001   0.000042  -0.000000
    19  C    0.000038  -0.000036   0.000002  -0.000000   0.000001   0.000000
    20  C   -0.021647  -0.022619  -0.000002  -0.000001   0.000000   0.000000
    21  C   -0.004458   0.005699  -0.000000   0.000000  -0.000001  -0.000000
    22  O    0.000900  -0.002075  -0.000020  -0.000018  -0.000121  -0.000000
    23  C    0.367712   0.350420   0.000000  -0.000000  -0.000000  -0.000000
    24  H   -0.021710  -0.021287  -0.000000  -0.000000   0.000000   0.000000
    25  H    0.457792  -0.020558  -0.000000  -0.000000   0.000000  -0.000000
    26  H   -0.020558   0.499691  -0.000000  -0.000001  -0.000002  -0.000000
    27  C   -0.000000  -0.000000   5.172904   0.363061   0.344018   0.363202
    28  H   -0.000000  -0.000001   0.363061   0.470783  -0.022021  -0.023286
    29  H    0.000000  -0.000002   0.344018  -0.022021   0.486134  -0.021222
    30  H   -0.000000  -0.000000   0.363202  -0.023286  -0.021222   0.469135
    31  N    0.000466  -0.000017   0.000000   0.000000   0.000000  -0.000000
    32  O    0.000002   0.000001  -0.000000   0.000000   0.000000   0.000000
    33  O    0.002016   0.000479  -0.000000   0.000000  -0.000000   0.000000
    34  Cl  -0.000000  -0.000000  -0.000020   0.000000  -0.000006   0.000001
    35  H    0.000000  -0.000000  -0.000032   0.000000   0.000044  -0.000001
    36  O   -0.000000   0.000000   0.000094   0.000004  -0.001237  -0.000139
    37  H   -0.000000   0.000000   0.000009   0.000000   0.000030   0.000002
              31         32         33         34         35         36
     1  Pt   0.000934  -0.000120  -0.000086   0.296651  -0.008908   0.142453
     2  N   -0.000000  -0.000000  -0.000000  -0.004427   0.000377  -0.003318
     3  C   -0.000000  -0.000000  -0.000000   0.000031   0.000083  -0.000310
     4  C    0.000000  -0.000000   0.000000  -0.000003  -0.000000  -0.000006
     5  C    0.000000   0.000000   0.000000   0.000003   0.000000   0.000017
     6  O    0.000000  -0.000000  -0.000000   0.000034  -0.000004  -0.000025
     7  C    0.000000  -0.000000  -0.000000   0.000000  -0.000000  -0.000000
     8  H    0.000000   0.000000   0.000000   0.000000   0.000000  -0.000000
     9  H   -0.000000   0.000000   0.000000  -0.000000   0.000000   0.000000
    10  H    0.000000   0.000000   0.000000  -0.000000   0.000000  -0.000000
    11  C   -0.006110   0.005392   0.000056  -0.001052   0.000002   0.000003
    12  H    0.000541   0.001579   0.000000  -0.000204  -0.000000   0.000000
    13  H    0.000703   0.003745   0.000006   0.000112   0.000000   0.000000
    14  H   -0.000024   0.000566   0.000001  -0.003907   0.000009  -0.000014
    15  N    0.000000   0.000000  -0.000000   0.000000  -0.000000  -0.000000
    16  O    0.000000  -0.000000  -0.000000  -0.000000   0.000000   0.000000
    17  O   -0.000000  -0.000000   0.000000  -0.000000  -0.000000  -0.000000
    18  N    0.004301   0.000107  -0.000023  -0.002880   0.000069  -0.001229
    19  C   -0.043336  -0.016034   0.004346  -0.002096  -0.000004   0.000008
    20  C   -0.049922   0.004533  -0.017457   0.000035   0.000000  -0.000000
    21  C    0.183188  -0.074722  -0.076177  -0.000258  -0.000000   0.000000
    22  O    0.002343  -0.000029   0.000001  -0.000409   0.000000   0.000005
    23  C   -0.005448   0.000065   0.007508  -0.000001   0.000000   0.000000
    24  H    0.000514   0.000004   0.002575   0.000000  -0.000000  -0.000000
    25  H    0.000466   0.000002   0.002016  -0.000000   0.000000  -0.000000
    26  H   -0.000017   0.000001   0.000479  -0.000000  -0.000000   0.000000
[...]
 0016267,0.00002215,0.00012649,-0.00022869,0.00015824,0.00012150,-0.000
 05494,0.00000039,0.00003241,0.00001552,0.00001301,-0.00000995,0.000005
 93,-0.00001296,-0.00001006,0.00000913,-0.00001073,0.00000580,0.0003440
 3,-0.00000125,-0.00051265,-0.00031601,-0.00005885,0.00015289,-0.000038
 05,-0.00002097,-0.00003409,-0.00015727,-0.00021041,0.00003611,0.000351
 52,-0.00020623,-0.00021721,-0.00011648,0.00010178,0.00006180,-0.000166
 20,0.00002049,0.00013345,-0.00238988,0.00060967,-0.00077550,0.00085420
 ,0.00597773,-0.00019207,0.00139218,-0.00568249,-0.00145609,-0.02439832
 ,-0.00971990,-0.04931592,-0.00199478,0.00014638,-0.00157101,-0.0011429
 1,0.00131148,0.00042535,-0.00092438,0.00075122,-0.00045696,-0.00031537
 ,0.00137890,-0.00002247,0.00043068,0.00042730,-0.00018268,-0.00001185,
 0.00004915,-0.00002335,0.00001500,-0.00001483,-0.00000005,0.00000271,-
 0.00005452,0.00002969,0.00000348,-0.00000676,-0.00000308,-0.20625258,-
 0.09550017,-0.18026902,0.03329779,-0.01199248,0.00196741,0.20158359,-0
 .00024749,0.00000626,-0.00018722,-0.00002271,-0.00001990,0.00001970,-0
 .00005198,-0.00004434,0.00001525,0.00001246,-0.00011772,-0.00000413,0.
 00000134,0.00007394,-0.00001380,-0.00002644,0.00005515,0.00000321,0.00
 002628,-0.00001890,-0.00001542,0.00000502,-0.00000057,0.00000115,-0.00
 000553,-0.00000310,0.00000115,-0.00000359,0.00000479,-0.00000417,-0.00
 042908,-0.00031321,-0.00047809,0.00003955,0.00003759,0.00108351,0.0011
 2168,0.00065470,0.00028998,-0.00031696,0.00056851,-0.00001824,-0.00002
 032,-0.00009455,0.00001024,0.00001078,0.00006362,-0.00000307,0.0000184
 4,0.00003895,-0.00001048,0.00057739,0.00036928,0.00119614,0.00206204,-
 0.00160721,-0.00047609,0.00013377,-0.00594566,-0.00277230,-0.00444181,
 0.02048634,-0.00384271,-0.00064061,0.00109719,0.00011563,0.00362364,-0
 .00316942,0.00224168,-0.00097717,0.00054468,0.00087927,0.00043284,0.00
 162781,-0.00040234,0.00110562,-0.00020135,0.00075819,0.00000481,0.0000
 0942,0.00000567,-0.00003263,0.00001078,-0.00000487,-0.00000794,-0.0000
 1432,-0.00002306,0.00000855,0.00000927,0.00000062,-0.07928462,-0.21670
 579,-0.14937635,-0.03518582,-0.05817104,-0.07625469,0.11241671,0.26071
 088,0.00063317,0.00043391,0.00045384,0.00014678,0.00015659,-0.00009987
 ,0.00022815,-0.00027326,-0.00009601,0.00017255,-0.00001704,-0.00014619
 ,-0.00018576,0.00002999,0.00015162,-0.00027738,0.00017392,0.00017313,-
 0.00004840,-0.00000565,0.00003887,0.00001122,0.00000590,-0.00002324,-0
 .00001678,-0.00001517,-0.00001208,0.00001022,-0.00001655,0.00001005,-0
 .00054007,-0.00066209,-0.00001694,-0.00006768,0.00004474,0.00044706,0.
 00062048,0.00053512,-0.00015199,-0.00006565,0.00018329,-0.00025052,0.0
 0036420,-0.00022352,-0.00026256,-0.00011728,0.00011232,0.00007998,-0.0
 0017624,0.00002032,0.00016667,-0.00106883,0.00132782,-0.00145617,-0.00
 202934,0.00355159,0.00339368,0.00123563,-0.00884579,-0.00259152,-0.047
 06227,-0.00941543,-0.03378042,-0.00186701,0.00104105,-0.00202788,0.001
 51947,0.00023765,0.00048315,-0.00117035,0.00167878,0.00084497,-0.00058
 849,0.00137017,-0.00068691,0.00017000,-0.00005231,0.00099510,-0.000001
 00,0.00005263,-0.00002457,-0.00000006,-0.00000553,-0.00000490,-0.00000
 185,-0.00006471,0.00002208,0.00000684,-0.00000310,-0.00000406,-0.17222
 341,-0.16570921,-0.33351191,-0.00914958,-0.05279885,-0.00842308,0.2319
 6787,0.22712069,0.37684694,-0.08181259,0.00774991,0.04836498,-0.000640
 64,0.00309095,0.00665212,0.00016016,-0.00246323,0.00082443,0.00005508,
 -0.00030228,-0.00002619,-0.00104121,0.00023277,0.00042684,-0.00176262,
 0.00105350,0.00163387,-0.00037210,0.00015498,0.00004044,0.00000862,0.0
 0000652,-0.00001596,-0.00003640,-0.00007645,-0.00000822,0.00000925,-0.
 00010405,0.00010254,0.00023883,0.00006506,-0.00037727,0.00026898,-0.00
 040861,0.00029456,0.00004807,-0.00004850,-0.00021353,-0.00029025,-0.00
 008950,0.00023660,0.00089447,-0.00094295,-0.00066314,-0.00029524,0.000
 40697,0.00014313,-0.00052080,0.00011924,0.00046681,0.00221345,-0.00057
 113,-0.00224874,0.00048374,0.00070649,0.00066549,-0.00025335,0.0000702
 0,0.00030276,0.00029393,-0.00030243,0.00029824,0.00076027,-0.00000749,
 0.00000629,-0.00005147,-0.00003651,0.00005631,0.00000015,0.00002733,0.
 00001164,0.00001891,-0.00001625,0.00003686,-0.00003502,-0.00002284,0.0
 0001369,0.00004210,0.00014284,0.00008889,-0.00002306,0.00005191,-0.000
 03867,-0.00008828,-0.00006875,0.00004091,0.00006415,0.00003401,-0.0000
 2720,-0.00016773,0.00023397,0.00027061,0.00007788,-0.00014658,-0.00011
 684,0.00007852,-0.00005723,-0.00006050,0.09256107,0.00761214,-0.019820
 90,-0.00383219,-0.00040413,0.00995016,-0.00016650,-0.00094005,-0.00033
 877,0.00094440,-0.00009651,0.00075786,-0.00016737,-0.00013156,0.000291
 23,-0.00015994,0.00297482,0.00010913,-0.00216994,0.00009972,-0.0001649
 7,-0.00016028,-0.00000434,-0.00001619,0.00001329,0.00004573,0.00005326
 ,-0.00002377,0.00000530,0.00001375,-0.00002945,-0.00056849,-0.00077877
 ,0.00045608,-0.00026967,0.00013340,-0.00009995,0.00013668,0.00012583,0
 .00038749,0.00073967,-0.00017021,0.00043492,-0.00020540,-0.00004726,0.
 00008913,0.00004443,-0.00002343,-0.00002078,0.00002929,0.00000917,0.00
 000265,-0.00044094,0.00052061,0.00009857,0.00001344,-0.00094802,-0.000
 29525,0.00018299,-0.00021308,0.00009810,-0.00012439,0.00028839,-0.0000
 6287,-0.00029642,0.00040822,0.00008991,0.00002824,0.00003040,-0.000031
 27,-0.00000075,-0.00000008,-0.00000629,-0.00000097,-0.00000136,0.00002
 299,-0.00000589,0.00001276,0.00002583,-0.00012227,-0.00018220,0.000200
 17,0.00001505,0.00001469,-0.00000663,0.00011340,-0.00008864,-0.0000302
 5,-0.00000218,0.00000286,-0.00000526,0.00002950,-0.00035658,-0.0001486
 8,0.00001759,0.00021360,0.00011686,0.00002720,0.00012811,0.00009538,-0
 .00981049,0.00987030,0.04799755,-0.00472150,-0.06963789,0.00717211,-0.
 00330648,0.00116444,0.00015758,0.00293556,-0.00094416,-0.00008347,0.00
 014688,-0.00001843,0.00087711,-0.00045680,-0.00088068,0.00199317,-0.00
 089688,-0.00062289,0.00014015,-0.00022652,-0.00031472,-0.00001259,-0.0
 0000820,0.00001274,0.00006537,0.00014021,-0.00002179,-0.00002924,0.000
 04812,-0.00005483,0.00008871,0.00083983,-0.00037012,0.00008702,-0.0000
 0185,-0.00014169,-0.00005636,-0.00003575,-0.00017925,-0.00028755,0.000
 10339,-0.00071999,-0.00114116,0.00101397,0.00041736,0.00033956,-0.0004
 6164,-0.00009746,0.00062536,-0.00012507,-0.00041345,0.00427510,0.00010
 044,-0.00634631,0.00046324,-0.00036394,0.00063743,0.00037112,-0.000038
 97,0.00026024,-0.00013928,0.00010407,-0.00008433,-0.00049855,0.0001910
 4,-0.00002827,-0.00003698,-0.00000508,-0.00003915,0.00001048,-0.000015
 75,0.00000993,0.00000592,0.00000711,-0.00001416,0.00002573,0.00002479,
 0.00000137,0.00019183,-0.00009230,0.00003108,-0.00001025,-0.00005339,0
 .00008668,-0.00000668,0.00010660,-0.00008223,-0.00003194,-0.00010036,-
 0.00000619,0.00036551,-0.00018952,0.00018662,-0.00016210,0.00011558,-0
 .00004039,-0.00014390,0.00002412,-0.00009729,-0.06111369,0.00544405,0.
 07312773,-0.00536081,-0.00748897,-0.00431841,0.00025721,0.00024780,-0.
 00060309,0.00011186,0.00001238,0.00023315,0.00002232,-0.00001388,0.000
 25570,-0.00018911,-0.00006153,0.00011890,-0.00043274,-0.00008951,0.000
 27145,-0.00005298,0.00000335,0.00000517,0.00002318,0.00000140,0.000024
 47,-0.00000645,-0.00002653,0.00000196,-0.00001769,-0.00001469,0.000066
 35,-0.00003107,-0.00008519,-0.00002918,-0.00002524,0.00001633,-0.00001
 273,0.00002901,0.00000931,0.00002665,0.00004463,0.00008275,-0.00004079
 ,0.00015183,-0.00004243,0.00000598,-0.00008955,0.00001789,-0.00001066,
 -0.00010966,-0.00002010,0.00004710,-0.00026518,0.00187506,-0.00112280,
 -0.00007576,0.00006045,-0.00027661,-0.00014118,0.00018613,-0.00007718,
 0.00005678,-0.00001306,0.00014958,0.00079893,0.00006163,0.00074897,0.0
 0004214,-0.00005340,0.00008907,0.00001727,0.00002884,0.00000799,-0.000
 01119,0.00000945,0.00000737,0.00000015,-0.00000749,-0.00001837,0.00023
 318,0.00009041,-0.00009124,-0.00008569,-0.00000614,0.00003593,-0.00005
 612,-0.00010950,-0.00001474,-0.00000346,0.00011387,0.00004941,-0.00026
 398,0.00011203,-0.00019912,0.00008618,-0.00006458,0.00007033,0.0001159
 7,-0.00000053,0.00011644,-0.00037630,0.00064066,0.00023844,0.15163627,
 0.00104268,0.00386794,-0.00436632,-0.00008000,0.00050701,-0.00051538,0
 .00014894,-0.00004972,-0.00034397,-0.00018912,0.00026790,0.00010560,-0
 .00000026,-0.00018844,0.00011496,-0.00003156,-0.00020406,0.00000375,-0
 .00005596,0.00001804,0.00000451,0.00001532,-0.00000982,0.00003911,-0.0
 0000153,-0.00003062,-0.00000247,-0.00000669,-0.00000055,0.00003143,0.0
 0007629,-0.00008060,0.00006605,-0.00002275,-0.00001315,-0.00000934,0.0
 0000137,-0.00001523,-0.00001049,0.00005396,0.00002713,0.00005559,0.000
 11931,0.00010122,-0.00011314,-0.00002976,-0.00007602,0.00006568,-0.000
 08864,-0.00006647,0.00008035,0.00054773,-0.00095696,0.00143115,-0.0001
 7876,0.00056676,0.00021470,0.00002275,0.00001077,0.00004274,0.00021753
 ,-0.00004849,0.00012069,0.00009823,-0.00029551,0.00010184,0.00005827,-
 0.00000781,0.00000272,-0.00000151,0.00001060,0.00000004,-0.00000451,0.
 00001791,0.00001283,-0.00000298,-0.00000280,-0.00000229,-0.00003327,0.
 00001997,0.00003790,0.00002564,-0.00001594,0.00003550,-0.00008727,-0.0
 0006857,-0.00004277,0.00004293,-0.00009508,-0.00006037,-0.00015189,0.0
 0026167,-0.00008802,0.00004968,-0.00012956,-0.00000069,0.00006947,-0.0
 0005542,0.00006239,0.00005650,-0.00032156,0.00003956,0.20907314,0.3418
 5918,-0.00581548,-0.01289591,-0.00159181,-0.00004647,0.00009986,0.0007
 0292,0.00048510,-0.00070536,-0.00040559,0.00018074,0.00001060,-0.00035
 277,-0.00019961,0.00000913,0.00010054,0.00005921,0.00048238,-0.0001740
 1,-0.00004122,0.00001699,0.00006105,-0.00000506,0.00000843,-0.00002480
 ,-0.00000201,-0.00001762,-0.00000427,0.00002603,-0.00001563,-0.0000131
 1,0.00001228,-0.00006472,-0.00006652,0.00000905,0.00001589,0.00001690,
 -0.00001296,0.00001271,0.00000875,-0.00003268,0.00001153,0.00003261,0.
 00038288,-0.00032912,-0.00025664,-0.00011696,0.00016972,0.00004804,-0.
 00015944,0.00005479,0.00012622,-0.00077269,0.00371050,-0.00115883,-0.0
 0009872,-0.00035471,-0.00049636,-0.00012939,0.00021972,-0.00001623,-0.
 00013065,0.00005734,0.00002905,0.00067926,0.00002755,0.00061809,-0.000
 00529,-0.00003066,0.00004487,0.00000238,0.00001062,0.00000623,0.000000
 33,-0.00000628,-0.00000242,-0.00000681,-0.00001150,-0.00000705,-0.0001
 1621,0.00002210,0.00010151,0.00004105,0.00002018,-0.00004334,0.0000563
 9,-0.00000215,-0.00005412,0.00003839,-0.00005077,-0.00001649,-0.000100
 69,-0.00003040,-0.00002008,0.00002907,-0.00001526,0.00000607,0.0000123
 1,-0.00000027,-0.00001905,0.00040596,-0.00021128,-0.00018672,0.0390837
 2,0.07928088,0.06850798,-0.05901601,0.00562807,-0.00995811,0.00329980,
 -0.00131953,0.00289950,0.00041838,0.00070620,-0.00081417,0.00004605,-0
 .00007142,-0.00037691,0.00029778,-0.00011969,-0.00042964,0.00067509,-0
 .00003436,0.00013068,-0.00002986,-0.00004890,-0.00010510,-0.00003127,-
 0.00000972,-0.00002780,0.00000439,0.00005214,-0.00001491,0.00001248,-0
 .00000465,-0.00003979,0.00010325,0.00022552,-0.00006784,0.00008618,-0.
 00004809,0.00004121,0.00000635,0.00003299,0.00002469,-0.00012168,-0.00
 005505,-0.00003755,-0.00030900,0.00032130,-0.00019511,0.00011542,-0.00
 017589,0.00009538,0.00015910,-0.00005440,0.00000409,0.00372502,0.00277
 018,-0.00797568,0.00139918,-0.00226647,-0.00074631,0.00015841,-0.00024
 831,0.00009509,-0.00103234,-0.00005629,-0.00041306,-0.00108314,0.00137
 373,-0.00234712,-0.00055331,0.00003616,0.00008181,-0.00000408,-0.00003
 760,0.00002412,0.00003594,-0.00012270,-0.00014214,0.00001776,0.0000138
 4,0.00000904,0.00008499,0.00004077,0.00037639,0.00000409,-0.00003683,0
 .00011705,-0.00019121,-0.00000882,-0.00017198,0.00019468,-0.00032639,-
 0.00023108,0.00076933,-0.00090969,0.00085605,-0.00028457,0.00037812,-0
 .00018169,-0.00041775,0.00011322,-0.00053022,-0.01265817,0.00258956,-0
 .00626384,-0.13305861,-0.21217056,-0.05238809,0.40008856,0.00100160,-0
 .03696186,0.00706690,-0.00011673,0.00055086,0.00075258,0.00030458,-0.0
 0095267,-0.00014545,0.00006239,-0.00011904,-0.00007775,-0.00011650,0.0
 0013268,0.00011378,-0.00019731,0.00036584,-0.00005588,-0.00002811,0.00
 001863,0.00003713,-0.00000003,0.00000810,-0.00001435,0.00000240,-0.000
 01143,0.00000138,0.00000467,-0.00001445,-0.00000524,0.00002744,-0.0002
 1780,-0.00023685,0.00000150,-0.00000072,0.00001529,0.00000484,0.000017
 73,0.00001309,0.00010442,-0.00001388,0.00002374,0.00011592,-0.00035079
 ,0.00002616,-0.00002205,0.00019963,-0.00006031,-0.00002374,0.00010743,
 -0.00002008,-0.00140777,0.01434996,-0.00139455,-0.00046676,-0.00046311
 ,-0.00135876,-0.00053629,0.00120387,0.00006643,-0.00035113,0.00007252,
 0.00013413,0.00349079,-0.00004786,0.00353329,0.00014804,-0.00020246,0.
 00015810,0.00004699,0.00005719,0.00003501,0.00000480,0.00001051,0.0000
 4867,-0.00001386,-0.00003322,-0.00002330,-0.00047523,-0.00017000,0.000
 01043,0.00010985,0.00010129,-0.00015472,0.00047959,-0.00008417,-0.0000
 1141,-0.00013017,0.00007319,0.00009375,-0.00026709,-0.00010834,-0.0000
 4035,0.00005627,-0.00003005,0.00001749,0.00004045,0.00000730,-0.000036
 82,0.00186651,0.00217151,0.00052557,-0.17779538,-0.33930806,-0.1015910
 2,0.23802464,0.40299016,-0.02631412,0.01994002,-0.05923645,-0.00073566
 ,-0.00002536,-0.00334796,-0.00065152,0.00085381,0.00069774,-0.00029597
 ,0.00002453,0.00012122,0.00029618,-0.00000572,-0.00016192,0.00038554,-
 0.00044452,-0.00009088,0.00008214,-0.00001155,-0.00004736,-0.00002656,
 -0.00002016,-0.00000432,-0.00001453,0.00002872,0.00000791,-0.00000787,
 0.00001098,-0.00002068,-0.00005785,0.00010523,0.00021324,0.00001654,0.
 00011150,-0.00002917,0.00001039,0.00004314,0.00010958,-0.00002424,0.00
 003810,-0.00013728,-0.00043940,0.00038142,0.00014242,0.00016311,-0.000
 21088,-0.00000407,0.00018614,-0.00007421,-0.00008799,-0.00697541,0.001
 04021,-0.00205560,0.00069697,-0.00352060,-0.00169452,0.00038505,-0.000
 60109,0.00001290,-0.00102141,0.00063115,-0.00089214,-0.00273063,0.0014
 4042,-0.00215042,-0.00031588,0.00024833,-0.00023533,-0.00005290,-0.000
 13372,-0.00002946,0.00004192,-0.00007015,-0.00011244,0.00002390,0.0000
 2187,0.00001638,0.00000051,-0.00031354,0.00006970,-0.00002056,0.000010
 68,0.00002819,0.00012806,-0.00001016,-0.00038456,0.00004612,-0.0000243
 2,-0.00015205,0.00120678,-0.00113426,0.00061924,-0.00037310,0.00050578
 ,-0.00012519,-0.00061736,0.00014343,-0.00054749,0.00477210,-0.00120387
 ,0.00545260,-0.02592558,-0.07081015,-0.07585147,-0.13074689,0.04722202
 ,0.41570437,0.01256202,0.00340824,-0.00912974,-0.00096090,0.00036559,0
 .00009011,-0.00024835,-0.00029129,0.00047143,0.00003932,-0.00012210,0.
 00012670,-0.00014159,0.00014485,0.00004440,-0.00046380,0.00001184,0.00
 027047,-0.00002465,0.00002841,0.00001466,0.00000951,0.00000439,0.00000
 741,-0.00000516,-0.00001403,0.00000669,-0.00000730,-0.00000544,0.00002
 054,-0.00007015,-0.00011145,0.00011768,-0.00008380,0.00012604,-0.00006
 890,0.00000499,0.00002080,0.00009669,0.00012231,0.00013687,-0.00007497
 ,0.00006314,-0.00016217,0.00005219,-0.00002604,0.00008307,-0.00004311,
 -0.00004030,0.00003773,-0.00000033,-0.00192991,-0.00032302,-0.00073156
 ,0.00005738,-0.00041131,-0.00069384,0.00004759,-0.00020288,-0.00015907
 ,-0.00012472,0.00014503,-0.00005769,-0.00049707,0.00014968,-0.00033656
 ,-0.00001261,0.00003912,-0.00002419,-0.00000625,-0.00001542,-0.0000111
 3,-0.00000770,-0.00000230,-0.00002329,0.00000994,0.00000475,-0.0000063
 3,-0.00010121,-0.00004145,-0.00006899,0.00003781,0.00003117,-0.0000727
 8,0.00016902,0.00006990,0.00011346,-0.00006395,0.00007720,0.00008868,-
 0.00000388,-0.00011306,-0.00013826,0.00000127,0.00006053,0.00006824,-0
 .00000031,0.00003830,0.00004510,0.00214752,-0.00192085,0.00452664,-0.0
 1297404,0.00141720,0.01867639,-0.20291151,-0.06394925,0.18890576,0.205
 43346,-0.00009500,0.00084597,0.00549932,0.00009636,-0.00031108,-0.0000
 2071,-0.00022148,0.00053734,0.00022554,0.00000459,0.00004535,-0.000008
 93,0.00012595,-0.00006670,-0.00008155,0.00010305,-0.00021805,-0.000046
 20,0.00002818,-0.00001722,-0.00002087,-0.00000129,-0.00000501,0.000006
 54,-0.00000076,0.00001174,-0.00000332,-0.00000354,0.00001346,-0.000002
 49,0.00002661,-0.00002317,0.00002911,0.00001533,-0.00001453,0.00001454
 ,0.00001300,0.00000051,0.00000031,-0.00002618,-0.00000817,0.00004744,-
 0.00016053,0.00027722,0.00003147,0.00004557,-0.00015045,0.00002148,0.0
 0005950,-0.00007064,-0.00002282,0.00015610,0.00034775,-0.00016296,0.00
 009278,-0.00011315,0.00000444,-0.00000269,0.00007831,0.00002261,-0.000
 06993,-0.00005266,-0.00008955,-0.00003603,0.00005002,-0.00017215,-0.00
 007219,-0.00000025,0.00000219,0.00000238,-0.00001073,0.00000475,0.0000
 0500,-0.00001009,-0.00002000,0.00000911,0.00000172,-0.00000925,0.00016
 859,-0.00013631,-0.00007101,-0.00002860,-0.00003350,0.00003302,-0.0000
 3100,0.00008427,-0.00025113,0.00002305,0.00003119,-0.00004370,0.000133
 81,-0.00003008,0.00013345,-0.00004415,0.00000105,-0.00004633,-0.000075
 62,-0.00002206,-0.00008921,-0.00059437,-0.00163315,-0.00081086,-0.0267
 4996,-0.00549567,0.03209174,-0.03418091,-0.04334838,0.00581300,0.06128
 525,0.04944512,0.00467355,0.00200857,-0.02054851,-0.00039898,0.0002749
 1,-0.00033677,0.00012318,-0.00020895,-0.00016597,0.00004855,0.00004065
 ,-0.00009966,-0.00011832,-0.00002520,0.00014441,-0.00018255,0.00009491
 ,0.00010051,-0.00003563,0.00001488,0.00004687,0.00000337,0.00000429,-0
 .00000754,-0.00000122,-0.00001965,-0.00000192,0.00001263,-0.00001111,0
 .00000140,-0.00002070,-0.00003177,-0.00001075,0.00000216,0.00000766,0.
 00001006,-0.00000217,-0.00000534,-0.00000365,-0.00002191,0.00004310,0.
 00003376,0.00032266,-0.00019582,-0.00018619,-0.00011054,0.00009622,0.0
 0005428,-0.00015290,0.00001874,0.00011283,-0.00143510,-0.00029827,0.00
 114348,-0.00038783,0.00019793,0.00007312,-0.00004494,0.00001013,0.0000
 0436,0.00021645,0.00009764,0.00008393,0.00023019,-0.00015639,0.0005024
 7,0.00011343,0.00000695,-0.00000139,-0.00000645,0.00001172,-0.00000560
 ,-0.00000968,0.00002387,0.00002822,-0.00001054,-0.00000859,-0.00000169
 ,0.00006070,0.00005392,-0.00002129,-0.00001303,-0.00001452,0.00002818,
 -0.00003402,-0.00012324,-0.00011861,0.00001730,-0.00004378,-0.00000313
 ,-0.00023093,0.00020364,-0.00023212,0.00009387,-0.00009632,0.00005069,
 0.00011149,-0.00002234,0.00012750,-0.00124562,0.00031190,-0.00004625,-
 0.00891350,-0.00558462,0.01035095,0.20944942,0.04533216,-0.27579681,-0
 .20210237,-0.04200791,0.28469106\\0.00000641,-0.00000032,-0.00000115,0
 .00000121,0.00001119,0.00000501,-0.00000348,-0.00000424,-0.00000127,-0
 .00000334,0.00000246,0.00000257,0.00000186,-0.00000499,-0.00000207,-0.
 00000165,-0.00000433,-0.00000370,0.00000042,-0.00000068,-0.00000157,0.
 00000078,-0.00000026,-0.00000060,0.00000036,-0.00000003,0.00000138,-0.
 00000015,0.00000010,0.00000008,-0.00000010,-0.00000025,0.00000035,0.00
 000071,0.00000028,-0.00000291,0.00000121,0.00000081,-0.00000009,-0.000
 00185,0.00000028,-0.00000077,0.00000240,0.00000101,0.00000658,-0.00000
 048,-0.00000280,0.00000032,0.00000006,0.00000155,-0.00000318,0.0000043
 2,-0.00000226,-0.00000165,-0.00000049,0.00000450,-0.00000208,0.0000004
 3,0.00000022,-0.00000351,-0.00000175,-0.00000071,-0.00000059,0.0000002
 0,0.00000023,0.00000398,0.00000033,0.00000027,-0.00000041,-0.00000016,
 -0.00000129,0.00000055,0.00000082,-0.00000039,-0.00000023,-0.00000044,
 -0.00000004,-0.00000013,-0.00000144,-0.00000182,-0.00000365,0.00000232
 ,0.00000068,0.00000150,0.00000075,-0.00000044,0.00000002,-0.00000178,0
 .00000083,0.00000211,-0.00000559,-0.00000720,0.00000936,0.00000148,0.0
 0000430,-0.00000460,0.00000145,0.00000137,-0.00000458,-0.00000180,-0.0
 0000028,0.00000234,-0.00000658,-0.00000765,-0.00000334,0.00000411,0.00
 000795,0.00000599,-0.00000052,0.00000194,-0.00000006\\\@


 Any fool can criticize, condemn, and complain -- and most do.
 -- Dale Carnegie
 Job cpu time:       0 days  2 hours 28 minutes 40.9 seconds.
 Elapsed time:       0 days  0 hours  3 minutes 12.4 seconds.
 File lengths (MBytes):  RWF=    643 Int=      0 D2E=      0 Chk=     13 Scr=      1
 Normal termination of Gaussian 16 at Fri Aug  1 16:55:00 2025.
