 Entering Gaussian System, Link 0=g16
 Input=CIX_small_opt.gjf
 Output=CIX_small_opt.log
 Initial command:
 /opt/exp_soft/local/skylake/gaussian/g16/C.01/l1.exe "/mnt/storage_5/scratch/pl0251-02/35462422/Gau-4234.inp" -scrdir="/mnt/storage_5/scratch/pl0251-02/35462422/"
 Entering Link 1 = /opt/exp_soft/local/skylake/gaussian/g16/C.01/l1.exe PID=      4235.
  
 Copyright (c) 1988-2019, Gaussian, Inc.  All Rights Reserved.
  
 This is part of the Gaussian(R) 16 program.  It is based on
 the Gaussian(R) 09 system (copyright 2009, Gaussian, Inc.),
 the Gaussian(R) 03 system (copyright 2003, Gaussian, Inc.),
 the Gaussian(R) 98 system (copyright 1998, Gaussian, Inc.),
 the Gaussian(R) 94 system (copyright 1995, Gaussian, Inc.),
 the Gaussian 92(TM) system (copyright 1992, Gaussian, Inc.),
 the Gaussian 90(TM) system (copyright 1990, Gaussian, Inc.),
 the Gaussian 88(TM) system (copyright 1988, Gaussian, Inc.),
 the Gaussian 86(TM) system (copyright 1986, Carnegie Mellon
 University), and the Gaussian 82(TM) system (copyright 1983,
 Carnegie Mellon University). Gaussian is a federally registered
 trademark of Gaussian, Inc.
  
 This software contains proprietary and confidential information,
 including trade secrets, belonging to Gaussian, Inc.
  
 This software is provided under written license and may be
 used, copied, transmitted, or stored only in accord with that
 written license.
  
 The following legend is applicable only to US Government
 contracts under FAR:
  
                    RESTRICTED RIGHTS LEGEND
  
 Use, reproduction and disclosure by the US Government is
 subject to restrictions as set forth in subparagraphs (a)
 and (c) of the Commercial Computer Software - Restricted
 Rights clause in FAR 52.227-19.
  
 Gaussian, Inc.
 340 Quinnipiac St., Bldg. 40, Wallingford CT 06492
  
  
 ---------------------------------------------------------------
 Warning -- This program may not be used in any manner that
 competes with the business of Gaussian, Inc. or will provide
 assistance to any competitor of Gaussian, Inc.  The licensee
 of this program is prohibited from giving any competitor of
 Gaussian, Inc. access to this program.  By using this program,
 the user acknowledges that Gaussian, Inc. is engaged in the
 business of creating and licensing software in the field of
 computational chemistry and represents and warrants to the
 licensee that it is not a competitor of Gaussian, Inc. and that
 it will not use this program in any manner prohibited above.
 ---------------------------------------------------------------
  

 Cite this work as:
 Gaussian 16, Revision C.01,
 M. J. Frisch, G. W. Trucks, H. B. Schlegel, G. E. Scuseria, 
 M. A. Robb, J. R. Cheeseman, G. Scalmani, V. Barone, 
 G. A. Petersson, H. Nakatsuji, X. Li, M. Caricato, A. V. Marenich, 
 J. Bloino, B. G. Janesko, R. Gomperts, B. Mennucci, H. P. Hratchian, 
 J. V. Ortiz, A. F. Izmaylov, J. L. Sonnenberg, D. Williams-Young, 
 F. Ding, F. Lipparini, F. Egidi, J. Goings, B. Peng, A. Petrone, 
 T. Henderson, D. Ranasinghe, V. G. Zakrzewski, J. Gao, N. Rega, 
 G. Zheng, W. Liang, M. Hada, M. Ehara, K. Toyota, R. Fukuda, 
 J. Hasegawa, M. Ishida, T. Nakajima, Y. Honda, O. Kitao, H. Nakai, 
 T. Vreven, K. Throssell, J. A. Montgomery, Jr., J. E. Peralta, 
 F. Ogliaro, M. J. Bearpark, J. J. Heyd, E. N. Brothers, K. N. Kudin, 
 V. N. Staroverov, T. A. Keith, R. Kobayashi, J. Normand, 
 K. Raghavachari, A. P. Rendell, J. C. Burant, S. S. Iyengar, 
 J. Tomasi, M. Cossi, J. M. Millam, M. Klene, C. Adamo, R. Cammi, 
 J. W. Ochterski, R. L. Martin, K. Morokuma, O. Farkas, 
 J. B. Foresman, and D. J. Fox, Gaussian, Inc., Wallingford CT, 2019.
 
 ******************************************
 Gaussian 16:  ES64L-G16RevC.01  3-Jul-2019
                 1-Aug-2025 
 ******************************************
 %Chk=CIX_small_opt.chk
 %Mem=3000MB
 %NProcShared=48
 Will use up to   48 processors via shared memory.
 ------------------------------------------------------------------
 # B3LYP/genecp Geom=PrintInputOrient Integral=(Grid=UltraFine) Opt
 ------------------------------------------------------------------
 1/18=20,19=15,26=4,38=1/1,3;
 2/9=2110,12=2,17=6,18=5,40=1/2;
 3/5=7,11=2,16=1,17=8,25=1,30=1,71=1,74=-5,75=-5/1,2,3;
 4//1;
 5/5=2,38=5/2;
 6/7=2,8=2,9=2,10=2,28=1/1;
 7//1,2,3,16;
 1/18=20,19=15,26=4/3(2);
 2/9=2110/2;
 99//99;
 2/9=2110/2;
 3/5=7,6=1,11=2,16=1,17=8,25=1,30=1,71=1,74=-5,75=-5,82=7/1,2,3;
 4/5=5,16=3,69=1/1;
 5/5=2,38=5/2;
 7//1,2,3,16;
 1/18=20,19=15,26=4/3(-5);
 2/9=2110/2;
 6/7=2,8=2,9=2,10=2,19=2,28=1/1;
 99/9=1/99;
 ---
 CLR
 ---
 Symbolic Z-matrix:
 Charge =  1 Multiplicity = 1
 Pt                    0.363     0.126    -1.603 
 N                    -1.08     -0.055    -0.19 
 C                    -1.507     0.701     0.798 
 C                    -2.994    -0.96      0.461 
 C                    -2.734     0.139     1.254 
 O                    -1.976    -1.097    -0.383 
 C                    -4.107    -1.918     0.357 
 H                    -3.8      -2.789    -0.236 
 H                    -4.448    -2.226     1.354 
 H                    -4.946    -1.415    -0.153 
 C                     1.298    -1.838     1.154 
 H                     2.036    -2.62      1.378 
 H                     0.651    -1.728     2.038 
 H                     0.689    -2.136     0.291 
 N                    -3.573     0.644     2.285 
 O                    -3.152     1.572     2.967 
 O                    -4.675     0.125     2.435 
 N                     1.751     0.187    -0.172 
 C                     1.996    -0.558     0.887 
 C                     3.321     1.27      0.965 
 C                     3.003     0.11      1.642 
 O                     2.56      1.316    -0.128 
 C                     4.267     2.375     1.196 
 H                     4.08      2.824     2.184 
 H                     5.297     1.985     1.203 
 H                     4.159     3.133     0.41 
 C                    -0.793     1.917     1.253 
 H                    -0.432     1.773     2.283 
 H                     0.054     2.146     0.596 
 H                    -1.491     2.766     1.261 
 N                     3.586    -0.323     2.87 
 O                     3.153    -1.347     3.383 
 O                     4.488     0.36      3.343 
 Cl                    1.986     0.336    -3.255 
 H                    -2.016     0.519    -2.641 
 O                    -1.116     0.112    -3.037 
 H                    -1.336    -0.804    -3.283 
 

 GradGradGradGradGradGradGradGradGradGradGradGradGradGradGradGradGradGrad
 Berny optimization.
 Initialization pass.
                           ----------------------------
                           !    Initial Parameters    !
                           ! (Angstroms and Degrees)  !
 --------------------------                            --------------------------
 ! Name  Definition              Value          Derivative Info.                !
 --------------------------------------------------------------------------------
 ! R1    R(1,2)                  2.0277         estimate D2E/DX2                !
 ! R2    R(1,18)                 1.9945         estimate D2E/DX2                !
 ! R3    R(1,34)                 2.3254         estimate D2E/DX2                !
 ! R4    R(1,36)                 2.0601         estimate D2E/DX2                !
 ! R5    R(2,3)                  1.3153         estimate D2E/DX2                !
 ! R6    R(2,6)                  1.3877         estimate D2E/DX2                !
 ! R7    R(3,5)                  1.4245         estimate D2E/DX2                !
 ! R8    R(3,27)                 1.4817         estimate D2E/DX2                !
 ! R9    R(4,5)                  1.3799         estimate D2E/DX2                !
 ! R10   R(4,6)                  1.3294         estimate D2E/DX2                !
 ! R11   R(4,7)                  1.4722         estimate D2E/DX2                !
 ! R12   R(5,15)                 1.4219         estimate D2E/DX2                !
 ! R13   R(7,8)                  1.0975         estimate D2E/DX2                !
 ! R14   R(7,9)                  1.0978         estimate D2E/DX2                !
 ! R15   R(7,10)                 1.1032         estimate D2E/DX2                !
 ! R16   R(11,12)                1.0983         estimate D2E/DX2                !
 ! R17   R(11,13)                1.101          estimate D2E/DX2                !
 ! R18   R(11,14)                1.0975         estimate D2E/DX2                !
 ! R19   R(11,19)                1.4822         estimate D2E/DX2                !
 ! R20   R(15,16)                1.2262         estimate D2E/DX2                !
 ! R21   R(15,17)                1.2273         estimate D2E/DX2                !
 ! R22   R(18,19)                1.3178         estimate D2E/DX2                !
 ! R23   R(18,22)                1.3896         estimate D2E/DX2                !
 ! R24   R(19,21)                1.4249         estimate D2E/DX2                !
 ! R25   R(20,21)                1.3802         estimate D2E/DX2                !
 ! R26   R(20,22)                1.3326         estimate D2E/DX2                !
 ! R27   R(20,23)                1.4729         estimate D2E/DX2                !
 ! R28   R(21,31)                1.4267         estimate D2E/DX2                !
 ! R29   R(23,24)                1.1012         estimate D2E/DX2                !
 ! R30   R(23,25)                1.1014         estimate D2E/DX2                !
 ! R31   R(23,26)                1.0973         estimate D2E/DX2                !
 ! R32   R(27,28)                1.1009         estimate D2E/DX2                !
 ! R33   R(27,29)                1.0961         estimate D2E/DX2                !
 ! R34   R(27,30)                1.0991         estimate D2E/DX2                !
 ! R35   R(31,32)                1.2244         estimate D2E/DX2                !
 ! R36   R(31,33)                1.2263         estimate D2E/DX2                !
 ! R37   R(35,36)                1.0642         estimate D2E/DX2                !
 ! R38   R(36,37)                0.9736         estimate D2E/DX2                !
 ! A1    A(2,1,18)              89.8856         estimate D2E/DX2                !
 ! A2    A(2,1,36)              88.4843         estimate D2E/DX2                !
 ! A3    A(18,1,34)             91.2167         estimate D2E/DX2                !
 ! A4    A(34,1,36)             90.4113         estimate D2E/DX2                !
 ! A5    A(1,2,3)              134.6816         estimate D2E/DX2                !
 ! A6    A(1,2,6)              115.4412         estimate D2E/DX2                !
 ! A7    A(3,2,6)              109.0527         estimate D2E/DX2                !
 ! A8    A(2,3,5)              107.0566         estimate D2E/DX2                !
 ! A9    A(2,3,27)             123.0881         estimate D2E/DX2                !
 ! A10   A(5,3,27)             129.8309         estimate D2E/DX2                !
 ! A11   A(5,4,6)              107.615          estimate D2E/DX2                !
 ! A12   A(5,4,7)              134.5303         estimate D2E/DX2                !
 ! A13   A(6,4,7)              117.8397         estimate D2E/DX2                !
 ! A14   A(3,5,4)              107.0094         estimate D2E/DX2                !
 ! A15   A(3,5,15)             126.8846         estimate D2E/DX2                !
 ! A16   A(4,5,15)             126.0393         estimate D2E/DX2                !
 ! A17   A(2,6,4)              109.1917         estimate D2E/DX2                !
 ! A18   A(4,7,8)              110.0672         estimate D2E/DX2                !
 ! A19   A(4,7,9)              110.6862         estimate D2E/DX2                !
 ! A20   A(4,7,10)             108.1149         estimate D2E/DX2                !
 ! A21   A(8,7,9)              110.7893         estimate D2E/DX2                !
 ! A22   A(8,7,10)             108.9534         estimate D2E/DX2                !
 ! A23   A(9,7,10)             108.1519         estimate D2E/DX2                !
 ! A24   A(12,11,13)           107.5925         estimate D2E/DX2                !
 ! A25   A(12,11,14)           109.8709         estimate D2E/DX2                !
 ! A26   A(12,11,19)           109.5831         estimate D2E/DX2                !
 ! A27   A(13,11,14)           109.415          estimate D2E/DX2                !
 ! A28   A(13,11,19)           109.5784         estimate D2E/DX2                !
 ! A29   A(14,11,19)           110.7419         estimate D2E/DX2                !
 ! A30   A(5,15,16)            118.0002         estimate D2E/DX2                !
 ! A31   A(5,15,17)            117.9196         estimate D2E/DX2                !
 ! A32   A(16,15,17)           124.08           estimate D2E/DX2                !
 ! A33   A(1,18,19)            133.5253         estimate D2E/DX2                !
 ! A34   A(1,18,22)            116.9175         estimate D2E/DX2                !
 ! A35   A(19,18,22)           109.0039         estimate D2E/DX2                !
 ! A36   A(11,19,18)           123.0545         estimate D2E/DX2                !
 ! A37   A(11,19,21)           129.9576         estimate D2E/DX2                !
 ! A38   A(18,19,21)           106.9879         estimate D2E/DX2                !
 ! A39   A(21,20,22)           107.442          estimate D2E/DX2                !
 ! A40   A(21,20,23)           134.5542         estimate D2E/DX2                !
 ! A41   A(22,20,23)           118.0032         estimate D2E/DX2                !
 ! A42   A(19,21,20)           107.2735         estimate D2E/DX2                !
 ! A43   A(19,21,31)           127.0561         estimate D2E/DX2                !
 ! A44   A(20,21,31)           125.6704         estimate D2E/DX2                !
 ! A45   A(18,22,20)           109.2916         estimate D2E/DX2                !
 ! A46   A(20,23,24)           109.7269         estimate D2E/DX2                !
 ! A47   A(20,23,25)           109.6331         estimate D2E/DX2                !
 ! A48   A(20,23,26)           110.0417         estimate D2E/DX2                !
 ! A49   A(24,23,25)           107.3061         estimate D2E/DX2                !
 ! A50   A(24,23,26)           110.1386         estimate D2E/DX2                !
 ! A51   A(25,23,26)           109.9506         estimate D2E/DX2                !
 ! A52   A(3,27,28)            109.7533         estimate D2E/DX2                !
 ! A53   A(3,27,29)            111.0848         estimate D2E/DX2                !
 ! A54   A(3,27,30)            109.2769         estimate D2E/DX2                !
 ! A55   A(28,27,29)           109.5559         estimate D2E/DX2                !
 ! A56   A(28,27,30)           107.6061         estimate D2E/DX2                !
 ! A57   A(29,27,30)           109.4938         estimate D2E/DX2                !
 ! A58   A(21,31,32)           118.0305         estimate D2E/DX2                !
 ! A59   A(21,31,33)           117.6157         estimate D2E/DX2                !
 ! A60   A(32,31,33)           124.3536         estimate D2E/DX2                !
 ! A61   A(1,36,35)            110.2151         estimate D2E/DX2                !
 ! A62   A(1,36,37)            110.1505         estimate D2E/DX2                !
 ! A63   A(35,36,37)           105.2326         estimate D2E/DX2                !
 ! A64   L(2,1,34,36,-1)       178.8957         estimate D2E/DX2                !
 ! A65   L(18,1,36,34,-1)      181.628          estimate D2E/DX2                !
 ! A66   L(2,1,34,36,-2)       179.934          estimate D2E/DX2                !
 ! A67   L(18,1,36,34,-2)      181.5169         estimate D2E/DX2                !
 ! D1    D(18,1,2,3)            62.4204         estimate D2E/DX2                !
 ! D2    D(18,1,2,6)          -129.3792         estimate D2E/DX2                !
 ! D3    D(36,1,2,3)          -116.0649         estimate D2E/DX2                !
 ! D4    D(36,1,2,6)            52.1355         estimate D2E/DX2                !
 ! D5    D(2,1,18,19)           48.8849         estimate D2E/DX2                !
 ! D6    D(2,1,18,22)         -121.4827         estimate D2E/DX2                !
 ! D7    D(34,1,18,19)        -131.2103         estimate D2E/DX2                !
 ! D8    D(34,1,18,22)          58.4222         estimate D2E/DX2                !
 ! D9    D(2,1,36,35)           29.3222         estimate D2E/DX2                !
 ! D10   D(2,1,36,37)          -86.3587         estimate D2E/DX2                !
 ! D11   D(34,1,36,35)        -150.6118         estimate D2E/DX2                !
 ! D12   D(34,1,36,37)          93.7073         estimate D2E/DX2                !
 ! D13   D(1,2,3,5)            168.0376         estimate D2E/DX2                !
 ! D14   D(1,2,3,27)           -10.3258         estimate D2E/DX2                !
 ! D15   D(6,2,3,5)             -0.6966         estimate D2E/DX2                !
 ! D16   D(6,2,3,27)          -179.0599         estimate D2E/DX2                !
 ! D17   D(1,2,6,4)           -168.9071         estimate D2E/DX2                !
 ! D18   D(3,2,6,4)              2.2444         estimate D2E/DX2                !
 ! D19   D(2,3,5,4)             -1.0082         estimate D2E/DX2                !
 ! D20   D(2,3,5,15)          -178.1665         estimate D2E/DX2                !
 ! D21   D(27,3,5,4)           177.2062         estimate D2E/DX2                !
 ! D22   D(27,3,5,15)            0.0478         estimate D2E/DX2                !
 ! D23   D(2,3,27,28)         -115.2727         estimate D2E/DX2                !
 ! D24   D(2,3,27,29)            6.0347         estimate D2E/DX2                !
 ! D25   D(2,3,27,30)          126.9481         estimate D2E/DX2                !
 ! D26   D(5,3,27,28)           66.7649         estimate D2E/DX2                !
 ! D27   D(5,3,27,29)         -171.9277         estimate D2E/DX2                !
 ! D28   D(5,3,27,30)          -51.0143         estimate D2E/DX2                !
 ! D29   D(6,4,5,3)              2.3727         estimate D2E/DX2                !
 ! D30   D(6,4,5,15)           179.5619         estimate D2E/DX2                !
 ! D31   D(7,4,5,3)           -176.131          estimate D2E/DX2                !
 ! D32   D(7,4,5,15)             1.0582         estimate D2E/DX2                !
 ! D33   D(5,4,6,2)             -2.8336         estimate D2E/DX2                !
 ! D34   D(7,4,6,2)            175.9602         estimate D2E/DX2                !
 ! D35   D(5,4,7,8)           -165.8216         estimate D2E/DX2                !
 ! D36   D(5,4,7,9)            -43.0121         estimate D2E/DX2                !
 ! D37   D(5,4,7,10)            75.2755         estimate D2E/DX2                !
 ! D38   D(6,4,7,8)             15.7912         estimate D2E/DX2                !
 ! D39   D(6,4,7,9)            138.6007         estimate D2E/DX2                !
 ! D40   D(6,4,7,10)          -103.1117         estimate D2E/DX2                !
 ! D41   D(3,5,15,16)           -8.7267         estimate D2E/DX2                !
 ! D42   D(3,5,15,17)          171.1396         estimate D2E/DX2                !
 ! D43   D(4,5,15,16)          174.6344         estimate D2E/DX2                !
 ! D44   D(4,5,15,17)           -5.4993         estimate D2E/DX2                !
 ! D45   D(12,11,19,18)        130.0883         estimate D2E/DX2                !
 ! D46   D(12,11,19,21)        -49.9804         estimate D2E/DX2                !
 ! D47   D(13,11,19,18)       -112.0711         estimate D2E/DX2                !
 ! D48   D(13,11,19,21)         67.8602         estimate D2E/DX2                !
 ! D49   D(14,11,19,18)          8.7226         estimate D2E/DX2                !
 ! D50   D(14,11,19,21)       -171.3462         estimate D2E/DX2                !
 ! D51   D(1,18,19,11)           8.8295         estimate D2E/DX2                !
 ! D52   D(1,18,19,21)        -171.1154         estimate D2E/DX2                !
 ! D53   D(22,18,19,11)        179.7503         estimate D2E/DX2                !
 ! D54   D(22,18,19,21)         -0.1946         estimate D2E/DX2                !
 ! D55   D(1,18,22,20)         172.96           estimate D2E/DX2                !
 ! D56   D(19,18,22,20)          0.3324         estimate D2E/DX2                !
 ! D57   D(11,19,21,20)       -179.941          estimate D2E/DX2                !
 ! D58   D(11,19,21,31)          0.0537         estimate D2E/DX2                !
 ! D59   D(18,19,21,20)         -0.0012         estimate D2E/DX2                !
 ! D60   D(18,19,21,31)        179.9935         estimate D2E/DX2                !
 ! D61   D(22,20,21,19)          0.2031         estimate D2E/DX2                !
 ! D62   D(22,20,21,31)       -179.7917         estimate D2E/DX2                !
 ! D63   D(23,20,21,19)       -179.5077         estimate D2E/DX2                !
 ! D64   D(23,20,21,31)          0.4975         estimate D2E/DX2                !
 ! D65   D(21,20,22,18)         -0.3244         estimate D2E/DX2                !
 ! D66   D(23,20,22,18)        179.4422         estimate D2E/DX2                !
 ! D67   D(21,20,23,24)        -56.1811         estimate D2E/DX2                !
 ! D68   D(21,20,23,25)         61.4288         estimate D2E/DX2                !
 ! D69   D(21,20,23,26)       -177.523          estimate D2E/DX2                !
 ! D70   D(22,20,23,24)        124.1314         estimate D2E/DX2                !
 ! D71   D(22,20,23,25)       -118.2587         estimate D2E/DX2                !
 ! D72   D(22,20,23,26)          2.7895         estimate D2E/DX2                !
 ! D73   D(19,21,31,32)         -3.4224         estimate D2E/DX2                !
 ! D74   D(19,21,31,33)        176.7356         estimate D2E/DX2                !
 ! D75   D(20,21,31,32)        176.5714         estimate D2E/DX2                !
 ! D76   D(20,21,31,33)         -3.2706         estimate D2E/DX2                !
 --------------------------------------------------------------------------------
 Trust Radius=3.00D-01 FncErr=1.00D-07 GrdErr=1.00D-06 EigMax=2.50D+02 EigMin=1.00D-04
 Number of steps in this run=    191 maximum allowed number of steps=    222.
 GradGradGradGradGradGradGradGradGradGradGradGradGradGradGradGradGradGrad

                          Input orientation:                          
 ---------------------------------------------------------------------
 Center     Atomic      Atomic             Coordinates (Angstroms)
 Number     Number       Type             X           Y           Z
 ---------------------------------------------------------------------
      1         78           0        0.363000    0.126000   -1.603000
      2          7           0       -1.080000   -0.055000   -0.190000
      3          6           0       -1.507000    0.701000    0.798000
      4          6           0       -2.994000   -0.960000    0.461000
      5          6           0       -2.734000    0.139000    1.254000
      6          8           0       -1.976000   -1.097000   -0.383000
      7          6           0       -4.107000   -1.918000    0.357000
      8          1           0       -3.800000   -2.789000   -0.236000
      9          1           0       -4.448000   -2.226000    1.354000
     10          1           0       -4.946000   -1.415000   -0.153000
     11          6           0        1.298000   -1.838000    1.154000
     12          1           0        2.036000   -2.620000    1.378000
     13          1           0        0.651000   -1.728000    2.038000
     14          1           0        0.689000   -2.136000    0.291000
     15          7           0       -3.573000    0.644000    2.285000
     16          8           0       -3.152000    1.572000    2.967000
     17          8           0       -4.675000    0.125000    2.435000
     18          7           0        1.751000    0.187000   -0.172000
     19          6           0        1.996000   -0.558000    0.887000
     20          6           0        3.321000    1.270000    0.965000
     21          6           0        3.003000    0.110000    1.642000
     22          8           0        2.560000    1.316000   -0.128000
     23          6           0        4.267000    2.375000    1.196000
     24          1           0        4.080000    2.824000    2.184000
     25          1           0        5.297000    1.985000    1.203000
     26          1           0        4.159000    3.133000    0.410000
     27          6           0       -0.793000    1.917000    1.253000
     28          1           0       -0.432000    1.773000    2.283000
     29          1           0        0.054000    2.146000    0.596000
     30          1           0       -1.491000    2.766000    1.261000
     31          7           0        3.586000   -0.323000    2.870000
     32          8           0        3.153000   -1.347000    3.383000
     33          8           0        4.488000    0.360000    3.343000
     34         17           0        1.986000    0.336000   -3.255000
     35          1           0       -2.016000    0.519000   -2.641000
     36          8           0       -1.116000    0.112000   -3.037000
     37          1           0       -1.336000   -0.804000   -3.283000
 ---------------------------------------------------------------------
                    Distance matrix (angstroms):
                    1          2          3          4          5
     1  Pt   0.000000
     2  N    2.027703   0.000000
     3  C    3.097148   1.315298   0.000000
     4  C    4.087657   2.214999   2.254697   0.000000
     5  C    4.213553   2.204198   1.424538   1.379946   0.000000
     6  O    2.907757   1.387742   2.201710   1.329447   2.186785
     7  C    5.291544   3.596207   3.716671   1.472192   2.630777
     8  H    5.262745   3.856847   4.301988   2.116763   3.453931
     9  H    6.117309   4.294252   4.186400   2.124693   2.922503
    10  H    5.715126   4.098405   4.148322   2.096265   3.047541
    11  C    3.511776   3.261949   3.800169   4.435358   4.491720
    12  H    4.384724   4.329816   4.890633   5.375629   5.511838
    13  H    4.095991   3.280133   3.477730   4.045093   3.944435
    14  H    2.968191   2.773316   3.623263   3.869931   4.221365
    15  N    5.556704   3.581798   2.546129   2.497005   1.421938
    16  O    5.943992   4.111808   2.858186   3.565953   2.272132
    17  O    6.456538   4.455003   3.612170   2.810634   2.272100
    18  N    1.994499   2.841382   3.437973   4.922532   4.706485
    19  C    3.055265   3.297683   3.723441   5.024259   4.795143
    20  C    4.080824   4.739035   4.864281   6.716111   6.166499
    21  C    4.183286   4.478207   4.626199   6.205133   5.750179
    22  O    2.901471   3.890127   4.216182   6.031087   5.596578
    23  C    5.304113   6.034592   6.024928   8.024000   7.349630
    24  H    5.952870   6.367897   6.135364   8.205417   7.382731
    25  H    5.972761   6.838726   6.935928   8.829738   8.240587
    26  H    5.244410   6.162018   6.178084   8.241399   7.562395
    27  C    3.563812   2.460366   1.481714   3.707937   2.632255
    28  H    4.294838   3.142804   2.123684   4.165671   3.004663
    29  H    3.001913   2.597721   2.136715   4.353822   3.497707
    30  H    4.313863   3.198806   2.116329   4.096594   2.906239
    31  N    5.531461   5.586321   5.592889   7.036011   6.539671
    32  O    5.900341   5.688047   5.708952   6.817145   6.434097
    33  O    6.444633   6.607340   6.521758   8.125801   7.521306
    34  Cl   2.325367   4.352868   5.362936   6.347336   6.530566
    35  H    2.625173   2.685698   3.481225   3.573000   3.978813
    36  O    2.060095   2.852121   3.899619   4.112429   4.585993
    37  H    2.563962   3.192677   4.353025   4.097662   4.840250
                    6          7          8          9         10
     6  O    0.000000
     7  C    2.400584   0.000000
     8  H    2.492278   1.097515   0.000000
     9  H    3.225305   1.097795   1.806924   0.000000
    10  H    2.995818   1.103191   1.791112   1.782351   0.000000
    11  C    3.691954   5.464031   5.368995   5.762557   6.393334
    12  H    4.638620   6.266713   6.057430   6.496004   7.248745
    13  H    3.627745   5.049795   5.109618   5.168719   6.018709
    14  H    2.938711   4.801406   4.566756   5.246603   5.698263
    15  N    3.563666   3.250567   4.265262   3.141542   3.473968
    16  O    4.441738   4.461415   5.449535   4.325065   4.677072
    17  O    4.088888   2.968932   4.048612   2.597555   3.023704
    18  N    3.947620   6.247162   6.298752   6.824870   6.885969
    19  C    4.204784   6.275118   6.311268   6.672739   7.071592
    20  C    5.956341   8.106059   8.284113   8.528229   8.763700
    21  C    5.508894   7.504406   7.629672   7.813913   8.290612
    22  O    5.144209   7.425825   7.570488   7.990879   7.987429
    23  C    7.315947   9.447626   9.684731   9.856236  10.053023
    24  H    7.657602   9.635946   9.972791   9.945762  10.242039
    25  H    8.056715  10.216866  10.373871  10.616984  10.877398
    26  H    7.493996   9.687217   9.941483  10.182852  10.193248
    27  C    3.627696   5.147100   5.779758   5.525728   5.506947
    28  H    4.210510   5.553250   6.204888   5.743109   6.039341
    29  H    3.949227   5.821266   6.316626   6.321151   6.183989
    30  H    4.226196   5.440637   6.199235   5.802806   5.605103
    31  N    6.489756   8.248724   8.383400   8.394333   9.117347
    32  O    6.368037   7.886084   7.969990   7.916103   8.837518
    33  O    7.601922   9.379739   9.561192   9.512918  10.216310
    34  Cl   5.098953   7.433149   7.235868   8.318839   7.793653
    35  H    2.776980   4.393092   4.462011   5.423069   4.302952
    36  O    3.040559   4.958449   4.844095   5.987433   5.031708
    37  H    2.984200   4.708401   4.392691   5.762673   4.816879
                   11         12         13         14         15
    11  C    0.000000
    12  H    1.098337   0.000000
    13  H    1.100984   1.774680   0.000000
    14  H    1.097476   1.797285   1.794413   0.000000
    15  N    5.582663   6.552650   4.850729   5.465261   0.000000
    16  O    5.892162   6.856612   5.120142   5.971894   1.226193
    17  O    6.416468   7.327332   5.653096   6.203334   1.227300
    18  N    2.462541   3.219157   3.124312   2.595870   5.881384
    19  C    1.482192   2.120029   2.121963   2.133905   5.866257
    20  C    3.713208   4.117511   4.155506   4.356895   7.047092
    21  C    2.634364   2.908210   3.011140   3.496329   6.628905
    22  O    3.630962   4.246729   4.195447   3.948735   6.624790
    23  C    5.154231   5.473619   5.533446   5.828399   8.102338
    24  H    5.525818   5.870665   5.700882   6.299518   7.958078
    25  H    5.532606   5.645420   6.005740   6.248844   9.035812
    26  H    5.783571   6.208153   6.211744   6.310105   8.336340
    27  C    4.299082   5.348199   3.998423   4.421377   3.227066
    28  H    4.160152   5.119424   3.672862   4.528243   3.337743
    29  H    4.210838   5.220594   4.176559   4.339559   4.273623
    30  H    5.383938   6.439131   5.038644   5.451872   3.144230
    31  N    3.236483   3.147185   3.358642   4.281451   7.247661
    32  O    2.941181   2.624546   2.866041   4.031660   7.099913
    33  O    4.449610   4.330581   4.559094   5.475137   8.135093
    34  Cl   4.963759   5.495919   5.835938   4.512993   7.854231
    35  H    5.562380   6.513400   5.835661   4.791938   5.167722
    36  O    5.214823   6.073809   5.680098   4.403080   5.885878
    37  H    5.262517   6.032674   5.754562   4.318371   6.172803
                   16         17         18         19         20
    16  O    0.000000
    17  O    2.167109   0.000000
    18  N    5.984226   6.934967   0.000000
    19  C    5.946865   6.882226   1.317775   0.000000
    20  C    6.782252   8.210234   2.220486   2.259047   0.000000
    21  C    6.463520   7.718857   2.205454   1.424885   1.380237
    22  O    6.501654   7.767411   1.389625   2.204585   1.332624
    23  C    7.669603   9.303601   3.604029   3.722286   1.472855
    24  H    7.381221   9.165022   4.234235   4.178898   2.115882
    25  H    8.641057  10.218523   4.206845   4.178912   2.114816
    26  H    7.900993   9.549254   3.849169   4.304600   2.116846
    27  C    2.936273   4.436024   3.390496   3.746746   4.174512
    28  H    2.811878   4.554345   3.648001   3.643839   4.009382
    29  H    4.028592   5.461667   2.703204   3.341805   3.402474
    30  H    2.663643   4.300118   4.383525   4.831979   5.047868
    31  N    7.000077   8.284567   3.589023   2.552570   2.497378
    32  O    6.960362   8.021413   4.117862   2.862025   3.567021
    33  O    7.744670   9.210877   4.458287   3.617281   2.800870
    34  Cl   8.163334   8.762964   3.095531   4.237393   4.523603
    35  H    5.817987   5.743805   4.516246   5.450033   6.484659
    36  O    6.505760   6.527590   4.053830   5.052843   6.086373
    37  H    6.928617   6.686366   4.493325   5.343373   6.635859
                   21         22         23         24         25
    21  C    0.000000
    22  O    2.187141   0.000000
    23  C    2.631888   2.405890   0.000000
    24  H    2.969762   3.151160   1.101233   0.000000
    25  H    2.995126   3.116134   1.101385   1.774083   0.000000
    26  H    3.463046   2.479462   1.097280   1.802442   1.800499
    27  C    4.222107   3.675727   5.081005   5.043366   6.090585
    28  H    3.869842   3.869604   4.860512   4.633848   5.833763
    29  H    3.733097   2.737355   4.261668   4.380651   5.280475
    30  H    5.234074   4.521330   5.771626   5.647241   6.833028
    31  N    1.426661   3.567492   3.247344   3.258564   3.321637
    32  O    2.275177   4.446385   4.458391   4.437812   4.522318
    33  O    2.271811   4.083988   2.952740   2.753369   2.806191
    34  Cl   5.006593   3.326861   5.401100   6.337010   5.792727
    35  H    6.610728   5.281113   7.592325   8.108937   8.390796
    36  O    6.233715   4.839925   7.212222   7.849344   7.912793
    37  H    6.627061   5.443091   7.846088   8.507851   8.479352
                   26         27         28         29         30
    26  H    0.000000
    27  C    5.168327   0.000000
    28  H    5.141499   1.100889   0.000000
    29  H    4.226084   1.096129   1.794796   0.000000
    30  H    5.725503   1.099122   1.775391   1.792666   0.000000
    31  N    4.280638   5.177637   4.569695   4.872583   6.156844
    32  O    5.470024   5.546306   4.878178   5.438034   6.556401
    33  O    4.049723   5.889084   5.227482   5.513271   6.772887
    34  Cl   5.096799   5.526705   6.211372   4.673214   6.195860
    35  H    7.366968   4.314321   5.322344   4.172553   4.533237
    36  O    6.988124   4.665453   5.615085   4.324898   5.065288
    37  H    7.702807   5.317329   6.199879   5.067666   5.780732
                   31         32         33         34         35
    31  N    0.000000
    32  O    1.224432   0.000000
    33  O    1.226304   2.167412   0.000000
    34  Cl   6.364739   6.946756   7.056499   0.000000
    35  H    7.903321   8.154084   8.839432   4.052961   0.000000
    36  O    7.562452   7.846620   8.495335   3.117708   1.064173
    37  H    7.894102   8.054907   8.898188   3.512274   1.620152
                   36         37
    36  O    0.000000
    37  H    0.973639   0.000000
 Stoichiometry    C10H14ClN4O7Pt(1+)
 Framework group  C1[X(C10H14ClN4O7Pt)]
 Deg. of freedom   105
 Full point group                 C1      NOp   1
 Largest Abelian subgroup         C1      NOp   1
 Largest concise Abelian subgroup C1      NOp   1
                         Standard orientation:                         
 ---------------------------------------------------------------------
 Center     Atomic      Atomic             Coordinates (Angstroms)
 Number     Number       Type             X           Y           Z
 ---------------------------------------------------------------------
      1         78           0        0.066863   -1.557787   -0.006928
      2          7           0       -1.371561   -0.130027    0.056429
      3          6           0       -1.709381    0.877527   -0.718633
      4          6           0       -3.359849    0.528277    0.777240
      5          6           0       -2.981752    1.338543   -0.273835
      6          8           0       -2.370100   -0.331191    0.998917
      7          6           0       -4.564831    0.420472    1.616136
      8          1           0       -4.353686   -0.192821    2.501477
      9          1           0       -4.924270    1.415762    1.908292
     10          1           0       -5.354346   -0.069075    1.021123
     11          6           0        0.829050    1.149259    2.096294
     12          1           0        1.486842    1.348894    2.952915
     13          1           0        0.206101    2.043433    1.939599
     14          1           0        0.183747    0.288673    2.314080
     15          7           0       -3.754286    2.389631   -0.839798
     16          8           0       -3.234468    3.083617   -1.706817
     17          8           0       -4.901298    2.543934   -0.431364
     18          7           0        1.469440   -0.143860    0.100835
     19          6           0        1.649596    0.897599    0.887880
     20          6           0        3.152916    0.993165   -0.795625
     21          6           0        2.726974    1.652103    0.339905
     22          8           0        2.388576   -0.088889   -0.939946
     23          6           0        4.207962    1.232869   -1.794985
     24          1           0        4.077953    2.231521   -2.240525
     25          1           0        5.193409    1.219231   -1.303295
     26          1           0        4.168383    0.462823   -2.575681
     27          6           0       -0.871509    1.346260   -1.847232
     28          1           0       -0.515672    2.368619   -1.646933
     29          1           0       -0.012941    0.682876   -2.003059
     30          1           0       -1.480226    1.379318   -2.761803
     31          7           0        3.276684    2.864080    0.853999
     32          8           0        2.748261    3.363117    1.839374
     33          8           0        4.248046    3.338293    0.274860
     34         17           0        1.684681   -3.226251   -0.085840
     35          1           0       -2.271553   -2.557472   -0.658063
     36          8           0       -1.421539   -2.972654   -0.170657
     37          1           0       -1.735436   -3.233112    0.713426
 ---------------------------------------------------------------------
 Rotational constants (GHZ):           0.2127102           0.1562100           0.1054638
 General basis read from cards:  (5D, 7F)
 ======================================================================================================
                                       Pseudopotential Parameters
 ======================================================================================================
  Center     Atomic      Valence      Angular      Power
  Number     Number     Electrons     Momentum     of R      Exponent        Coefficient   SO-Coeffient
 ======================================================================================================
    1         78           18
                                      H and up 
                                                     2        1.0000000        0.00000000    0.00000000
                                      S - H
                                                     2       13.4286510      579.22386100    0.00000000
                                                     2        6.7143260       29.66949100    0.00000000
                                      P - H
                                                     2       10.3659440      280.86077400    0.00000000
                                                     2        5.1829720       26.74538200    0.00000000
                                      D - H
                                                     2        7.6004790      120.39644400    0.00000000
                                                     2        3.8002400       15.81092100    0.00000000
                                      F - H
                                                     2        3.3095690       24.31437600    0.00000000
                                      G - H
                                                     2        5.2772890      -24.21867500    0.00000000
    2          7
                                   No pseudopotential on this center.
    3          6
                                   No pseudopotential on this center.
    4          6
                                   No pseudopotential on this center.
    5          6
                                   No pseudopotential on this center.
    6          8
                                   No pseudopotential on this center.
    7          6
                                   No pseudopotential on this center.
    8          1
                                   No pseudopotential on this center.
    9          1
                                   No pseudopotential on this center.
   10          1
                                   No pseudopotential on this center.
   11          6
                                   No pseudopotential on this center.
   12          1
                                   No pseudopotential on this center.
   13          1
                                   No pseudopotential on this center.
   14          1
                                   No pseudopotential on this center.
   15          7
                                   No pseudopotential on this center.
   16          8
                                   No pseudopotential on this center.
   17          8
                                   No pseudopotential on this center.
   18          7
                                   No pseudopotential on this center.
   19          6
                                   No pseudopotential on this center.
   20          6
                                   No pseudopotential on this center.
   21          6
                                   No pseudopotential on this center.
   22          8
                                   No pseudopotential on this center.
   23          6
                                   No pseudopotential on this center.
   24          1
                                   No pseudopotential on this center.
   25          1
                                   No pseudopotential on this center.
   26          1
                                   No pseudopotential on this center.
   27          6
                                   No pseudopotential on this center.
   28          1
                                   No pseudopotential on this center.
   29          1
                                   No pseudopotential on this center.
   30          1
                                   No pseudopotential on this center.
   31          7
                                   No pseudopotential on this center.
   32          8
                                   No pseudopotential on this center.
   33          8
                                   No pseudopotential on this center.
   34         17
                                   No pseudopotential on this center.
   35          1
                                   No pseudopotential on this center.
   36          8
                                   No pseudopotential on this center.
   37          1
                                   No pseudopotential on this center.
 ======================================================================================================
 There are   401 symmetry adapted cartesian basis functions of A   symmetry.
 There are   376 symmetry adapted basis functions of A   symmetry.
   376 basis functions,   761 primitive gaussians,   401 cartesian basis functions
    96 alpha electrons       96 beta electrons
       nuclear repulsion energy      2495.6222709224 Hartrees.
 NAtoms=   37 NActive=   37 NUniq=   37 SFac= 1.00D+00 NAtFMM=   60 NAOKFM=F Big=F
 Integral buffers will be    131072 words long.
 Raffenetti 2 integral format.
 Two-electron integral symmetry is turned on.
 One-electron integrals computed using PRISM.
   1 Symmetry operations used in ECPInt.
 ECPInt:  NShTT=    8646 NPrTT=   53439 LenC2=    7539 LenP2D=   26529.
 LDataN:  DoStor=T MaxTD1= 7 Len=  274
 Number of processors reduced to  27 by ecpmxn.
 NBasis=   376 RedAO= T EigKep=  6.84D-04  NBF=   376
 NBsUse=   376 1.00D-06 EigRej= -1.00D+00 NBFU=   376
 Defaulting to unpruned grid for atomic number  78.
 ExpMin= 1.50D-02 ExpMax= 2.52D+04 ExpMxC= 3.78D+03 IAcc=3 IRadAn=         5 AccDes= 0.00D+00
 Harris functional with IExCor=  402 and IRadAn=       5 diagonalized for initial guess.
 HarFok:  IExCor=  402 AccDes= 0.00D+00 IRadAn=         5 IDoV= 1 UseB2=F ITyADJ=14
 ICtDFT=  3500011 ScaDFX=  1.000000  1.000000  1.000000  1.000000
 Defaulting to unpruned grid for atomic number  78.
 FoFCou: FMM=F IPFlag=           0 FMFlag=      100000 FMFlg1=           0
         NFxFlg=           0 DoJE=T BraDBF=F KetDBF=T FulRan=T
         wScrn=  0.000000 ICntrl=       500 IOpCl=  0 I1Cent=   200000004 NGrid=           0
         NMat0=    1 NMatS0=      1 NMatT0=    0 NMatD0=    1 NMtDS0=    0 NMtDT0=    0
 Petite list used in FoFCou.
 Requested convergence on RMS density matrix=1.00D-08 within 128 cycles.
 Requested convergence on MAX density matrix=1.00D-06.
 Requested convergence on             energy=1.00D-06.
 No special actions if energy rises.
 Defaulting to unpruned grid for atomic number  78.
 Defaulting to unpruned grid for atomic number  78.
 Defaulting to unpruned grid for atomic number  78.
 Defaulting to unpruned grid for atomic number  78.
 Defaulting to unpruned grid for atomic number  78.
 Defaulting to unpruned grid for atomic number  78.
 Defaulting to unpruned grid for atomic number  78.
 Defaulting to unpruned grid for atomic number  78.
 Defaulting to unpruned grid for atomic number  78.
 Defaulting to unpruned grid for atomic number  78.
 Defaulting to unpruned grid for atomic number  78.
 Defaulting to unpruned grid for atomic number  78.
 Defaulting to unpruned grid for atomic number  78.
 Defaulting to unpruned grid for atomic number  78.
 Defaulting to unpruned grid for atomic number  78.
 Defaulting to unpruned grid for atomic number  78.
 Defaulting to unpruned grid for atomic number  78.
 Defaulting to unpruned grid for atomic number  78.
 Defaulting to unpruned grid for atomic number  78.
 Defaulting to unpruned grid for atomic number  78.
 Defaulting to unpruned grid for atomic number  78.
 Defaulting to unpruned grid for atomic number  78.
 Defaulting to unpruned grid for atomic number  78.
 Defaulting to unpruned grid for atomic number  78.
 Defaulting to unpruned grid for atomic number  78.
 Defaulting to unpruned grid for atomic number  78.
 Defaulting to unpruned grid for atomic number  78.
 Defaulting to unpruned grid for atomic number  78.
 Defaulting to unpruned grid for atomic number  78.
 Defaulting to unpruned grid for atomic number  78.
 Defaulting to unpruned grid for atomic number  78.
 Defaulting to unpruned grid for atomic number  78.
 Defaulting to unpruned grid for atomic number  78.
 Defaulting to unpruned grid for atomic number  78.
 Defaulting to unpruned grid for atomic number  78.
 Defaulting to unpruned grid for atomic number  78.
 Defaulting to unpruned grid for atomic number  78.
 Defaulting to unpruned grid for atomic number  78.
 Defaulting to unpruned grid for atomic number  78.
 Defaulting to unpruned grid for atomic number  78.
 Defaulting to unpruned grid for atomic number  78.
 Defaulting to unpruned grid for atomic number  78.
 Defaulting to unpruned grid for atomic number  78.
 Defaulting to unpruned grid for atomic number  78.
 Defaulting to unpruned grid for atomic number  78.
 Defaulting to unpruned grid for atomic number  78.
 Defaulting to unpruned grid for atomic number  78.
 Defaulting to unpruned grid for atomic number  78.
 EnCoef did     3 forward-backward iterations
 EnCoef did   100 forward-backward iterations
 EnCoef did     4 forward-backward iterations
 EnCoef did     4 forward-backward iterations
 Restarting incremental Fock formation.
 SCF Done:  E(RB3LYP) =  -1714.17279169     A.U. after   21 cycles
            NFock= 21  Conv=0.48D-08     -V/T= 2.0534

 **********************************************************************

            Population analysis using the SCF Density.

 **********************************************************************

 Orbital symmetries:
       Occupied  (A) (A) (A) (A) (A) (A) (A) (A) (A) (A) (A) (A)
                 (A) (A) (A) (A) (A) (A) (A) (A) (A) (A) (A) (A)
                 (A) (A) (A) (A) (A) (A) (A) (A) (A) (A) (A) (A)
                 (A) (A) (A) (A) (A) (A) (A) (A) (A) (A) (A) (A)
                 (A) (A) (A) (A) (A) (A) (A) (A) (A) (A) (A) (A)
                 (A) (A) (A) (A) (A) (A) (A) (A) (A) (A) (A) (A)
                 (A) (A) (A) (A) (A) (A) (A) (A) (A) (A) (A) (A)
                 (A) (A) (A) (A) (A) (A) (A) (A) (A) (A) (A) (A)
       Virtual   (A) (A) (A) (A) (A) (A) (A) (A) (A) (A) (A) (A)
                 (A) (A) (A) (A) (A) (A) (A) (A) (A) (A) (A) (A)
                 (A) (A) (A) (A) (A) (A) (A) (A) (A) (A) (A) (A)
                 (A) (A) (A) (A) (A) (A) (A) (A) (A) (A) (A) (A)
                 (A) (A) (A) (A) (A) (A) (A) (A) (A) (A) (A) (A)
                 (A) (A) (A) (A) (A) (A) (A) (A) (A) (A) (A) (A)
                 (A) (A) (A) (A) (A) (A) (A) (A) (A) (A) (A) (A)
                 (A) (A) (A) (A) (A) (A) (A) (A) (A) (A) (A) (A)
                 (A) (A) (A) (A) (A) (A) (A) (A) (A) (A) (A) (A)
                 (A) (A) (A) (A) (A) (A) (A) (A) (A) (A) (A) (A)
                 (A) (A) (A) (A) (A) (A) (A) (A) (A) (A) (A) (A)
                 (A) (A) (A) (A) (A) (A) (A) (A) (A) (A) (A) (A)
                 (A) (A) (A) (A) (A) (A) (A) (A) (A) (A) (A) (A)
                 (A) (A) (A) (A) (A) (A) (A) (A) (A) (A) (A) (A)
                 (A) (A) (A) (A) (A) (A) (A) (A) (A) (A) (A) (A)
                 (A) (A) (A) (A) (A) (A) (A) (A) (A) (A) (A) (A)
                 (A) (A) (A) (A) (A) (A) (A) (A) (A) (A) (A) (A)
                 (A) (A) (A) (A) (A) (A) (A) (A) (A) (A) (A) (A)
                 (A) (A) (A) (A) (A) (A) (A) (A) (A) (A) (A) (A)
                 (A) (A) (A) (A) (A) (A) (A) (A) (A) (A) (A) (A)
                 (A) (A) (A) (A) (A) (A) (A) (A) (A) (A) (A) (A)
                 (A) (A) (A) (A) (A) (A) (A) (A) (A) (A) (A) (A)
                 (A) (A) (A) (A) (A) (A) (A) (A) (A) (A) (A) (A)
                 (A) (A) (A) (A)
 The electronic state is 1-A.
 Alpha  occ. eigenvalues -- -101.59441 -19.43995 -19.42034 -19.39969 -19.31367
 Alpha  occ. eigenvalues --  -19.31295 -19.30165 -19.30083 -14.71379 -14.70182
 Alpha  occ. eigenvalues --  -14.61113 -14.60397 -10.46072 -10.44441 -10.43690
 Alpha  occ. eigenvalues --  -10.42451 -10.41004 -10.39451 -10.34799 -10.34792
 Alpha  occ. eigenvalues --  -10.33881 -10.32976  -9.52394  -7.28591  -7.27832
 Alpha  occ. eigenvalues --   -7.27794  -4.10956  -2.36956  -2.36270  -2.32026
 Alpha  occ. eigenvalues --   -1.37080  -1.36187  -1.35879  -1.34134  -1.23652
 Alpha  occ. eigenvalues --   -1.19158  -1.18069  -1.09752  -1.08150  -1.02564
 Alpha  occ. eigenvalues --   -1.00916  -0.92716  -0.91137  -0.90334  -0.88969
 Alpha  occ. eigenvalues --   -0.87783  -0.87045  -0.85614  -0.78521  -0.76938
 Alpha  occ. eigenvalues --   -0.75463  -0.74657  -0.74163  -0.69938  -0.69742
 Alpha  occ. eigenvalues --   -0.69124  -0.68048  -0.67215  -0.66792  -0.66375
 Alpha  occ. eigenvalues --   -0.65246  -0.64094  -0.64012  -0.62807  -0.61523
 Alpha  occ. eigenvalues --   -0.60005  -0.59701  -0.59489  -0.59041  -0.58297
 Alpha  occ. eigenvalues --   -0.57958  -0.57707  -0.57292  -0.56281  -0.56195
 Alpha  occ. eigenvalues --   -0.55621  -0.54721  -0.54583  -0.53053  -0.50900
 Alpha  occ. eigenvalues --   -0.48741  -0.46486  -0.46284  -0.45910  -0.44868
 Alpha  occ. eigenvalues --   -0.44547  -0.44235  -0.43887  -0.43397  -0.43105
 Alpha  occ. eigenvalues --   -0.42603  -0.41775  -0.41517  -0.40663  -0.37688
 Alpha  occ. eigenvalues --   -0.37094
 Alpha virt. eigenvalues --   -0.22514  -0.21125  -0.20969  -0.20372  -0.18817
 Alpha virt. eigenvalues --   -0.16898  -0.13229  -0.11194  -0.10351  -0.10022
 Alpha virt. eigenvalues --   -0.09021  -0.08861  -0.07189  -0.06239  -0.05018
 Alpha virt. eigenvalues --   -0.03904  -0.03784  -0.03191  -0.02336  -0.01655
 Alpha virt. eigenvalues --    0.00278   0.00694   0.01578   0.01809   0.02331
 Alpha virt. eigenvalues --    0.03037   0.03045   0.03653   0.04069   0.04159
 Alpha virt. eigenvalues --    0.05127   0.05717   0.05978   0.06589   0.07038
 Alpha virt. eigenvalues --    0.07573   0.08694   0.09156   0.10576   0.11148
 Alpha virt. eigenvalues --    0.11591   0.12605   0.13203   0.13716   0.15340
 Alpha virt. eigenvalues --    0.15945   0.16397   0.17443   0.19471   0.24045
 Alpha virt. eigenvalues --    0.24694   0.26520   0.27376   0.32558   0.33411
 Alpha virt. eigenvalues --    0.33965   0.34325   0.35806   0.36300   0.36872
 Alpha virt. eigenvalues --    0.37346   0.38074   0.39534   0.40050   0.41035
 Alpha virt. eigenvalues --    0.41778   0.42373   0.43423   0.44396   0.45302
 Alpha virt. eigenvalues --    0.46437   0.46594   0.47480   0.48423   0.49040
 Alpha virt. eigenvalues --    0.50141   0.50765   0.52117   0.52687   0.53589
 Alpha virt. eigenvalues --    0.54290   0.54764   0.54878   0.55617   0.57392
 Alpha virt. eigenvalues --    0.57752   0.59260   0.59737   0.60646   0.61086
 Alpha virt. eigenvalues --    0.62352   0.64576   0.65792   0.66105   0.66408
 Alpha virt. eigenvalues --    0.67488   0.67940   0.68193   0.68985   0.69642
 Alpha virt. eigenvalues --    0.70272   0.71601   0.71726   0.72499   0.73141
 Alpha virt. eigenvalues --    0.74085   0.74482   0.75295   0.76541   0.76687
 Alpha virt. eigenvalues --    0.77586   0.78436   0.79004   0.79699   0.80631
 Alpha virt. eigenvalues --    0.81174   0.81678   0.82655   0.82712   0.83489
 Alpha virt. eigenvalues --    0.83579   0.84407   0.85143   0.85994   0.86399
 Alpha virt. eigenvalues --    0.87545   0.87956   0.88426   0.89247   0.89770
 Alpha virt. eigenvalues --    0.90251   0.90716   0.91243   0.92950   0.93415
 Alpha virt. eigenvalues --    0.94264   0.95568   0.98219   0.99672   1.00196
 Alpha virt. eigenvalues --    1.00520   1.01169   1.03225   1.03839   1.05287
 Alpha virt. eigenvalues --    1.06612   1.08305   1.09696   1.10072   1.11735
 Alpha virt. eigenvalues --    1.14367   1.15530   1.17338   1.17392   1.17778
 Alpha virt. eigenvalues --    1.20119   1.20911   1.21691   1.23493   1.23809
 Alpha virt. eigenvalues --    1.26087   1.26333   1.27539   1.27919   1.29469
 Alpha virt. eigenvalues --    1.30535   1.30991   1.35693   1.36458   1.38046
 Alpha virt. eigenvalues --    1.40866   1.42648   1.45016   1.46235   1.47009
 Alpha virt. eigenvalues --    1.48345   1.49927   1.53168   1.54053   1.55419
 Alpha virt. eigenvalues --    1.55616   1.56300   1.57404   1.58042   1.59656
 Alpha virt. eigenvalues --    1.63466   1.63698   1.65472   1.66991   1.67530
 Alpha virt. eigenvalues --    1.67539   1.68189   1.68478   1.68903   1.69101
 Alpha virt. eigenvalues --    1.70605   1.72297   1.73367   1.73759   1.75928
 Alpha virt. eigenvalues --    1.77490   1.78693   1.81892   1.82323   1.83441
 Alpha virt. eigenvalues --    1.83825   1.84376   1.85509   1.87115   1.87873
 Alpha virt. eigenvalues --    1.88986   1.90926   1.91797   1.95301   1.95912
 Alpha virt. eigenvalues --    1.96424   1.97100   1.97712   1.99422   2.00624
 Alpha virt. eigenvalues --    2.00769   2.01193   2.01990   2.05360   2.06272
 Alpha virt. eigenvalues --    2.06995   2.08720   2.09054   2.09989   2.11229
 Alpha virt. eigenvalues --    2.11348   2.12778   2.15533   2.17289   2.21600
 Alpha virt. eigenvalues --    2.22224   2.23132   2.23778   2.26636   2.27945
 Alpha virt. eigenvalues --    2.28787   2.29772   2.30652   2.32402   2.32742
 Alpha virt. eigenvalues --    2.37727   2.39291   2.40564   2.41965   2.44746
 Alpha virt. eigenvalues --    2.46488   2.47643   2.47974   2.54209   2.56543
 Alpha virt. eigenvalues --    2.58500   2.59120   2.65345   2.66189   2.69115
 Alpha virt. eigenvalues --    2.70325   2.71551   2.73453   2.74883   2.78513
 Alpha virt. eigenvalues --    2.79976   2.81958   2.83614   2.87168   2.88962
 Alpha virt. eigenvalues --    2.91927   2.93407   3.08552   3.09870   3.16662
 Alpha virt. eigenvalues --    3.17848  45.65095  45.91171  45.93562 114.13366
          Condensed to atoms (all electrons):
               1          2          3          4          5          6
     1  Pt  17.207529  -0.002826  -0.043103  -0.007732   0.006745   0.004003
     2  N   -0.002826   6.944387   0.409696  -0.103877  -0.002867   0.155767
     3  C   -0.043103   0.409696   4.768547  -0.047721   0.361418  -0.091417
     4  C   -0.007732  -0.103877  -0.047721   4.812020   0.399676   0.244426
     5  C    0.006745  -0.002867   0.361418   0.399676   5.240456  -0.009912
     6  O    0.004003   0.155767  -0.091417   0.244426  -0.009912   8.051237
     7  C   -0.000686   0.004231   0.005702   0.388674  -0.057527  -0.050884
     8  H    0.001817   0.000043  -0.000079  -0.023618   0.005766  -0.002131
     9  H   -0.000258  -0.000113   0.000238  -0.021343  -0.004701   0.001546
    10  H    0.000560   0.000002  -0.000095  -0.023631  -0.005048   0.000323
    11  C    0.013757  -0.001515  -0.000091   0.000001  -0.000140  -0.000262
    12  H    0.000820   0.000125   0.000012  -0.000004   0.000000   0.000001
    13  H    0.004814  -0.000034   0.000568   0.000166   0.000203  -0.000181
    14  H    0.012468  -0.001233  -0.000417   0.000131  -0.000113   0.000468
    15  N    0.000897   0.004871  -0.045067  -0.052865   0.177862   0.002442
    16  O    0.000010   0.000107  -0.016545   0.004627  -0.071434  -0.000030
    17  O    0.000078  -0.000035   0.004181  -0.014773  -0.075587   0.000008
    18  N    0.103693  -0.012807   0.001806  -0.000004   0.000060  -0.000010
    19  C   -0.030803  -0.001394   0.000499  -0.000033  -0.000054  -0.000086
    20  C   -0.004607   0.000043  -0.000066   0.000000   0.000000   0.000000
    21  C    0.003594  -0.000118  -0.000157   0.000001  -0.000001  -0.000001
    22  O   -0.008201  -0.000030   0.000015   0.000000  -0.000001  -0.000000
    23  C   -0.000792   0.000000  -0.000000  -0.000000   0.000000   0.000000
    24  H    0.000115  -0.000000   0.000000  -0.000000   0.000000  -0.000000
    25  H    0.000111   0.000000  -0.000000   0.000000  -0.000000  -0.000000
    26  H    0.001557  -0.000000   0.000000   0.000000  -0.000000  -0.000000
    27  C    0.010445  -0.051383   0.375114   0.007433  -0.053057   0.003547
    28  H    0.003418   0.000987  -0.020625  -0.000125  -0.004298  -0.000051
    29  H    0.009315  -0.005186  -0.022949   0.000066   0.004891  -0.000041
    30  H    0.001171   0.001755  -0.020383  -0.000004  -0.005441  -0.000043
    31  N    0.000854   0.000000   0.000001  -0.000000   0.000000   0.000000
    32  O    0.000218  -0.000000  -0.000000   0.000000  -0.000000  -0.000000
    33  O   -0.000082   0.000000   0.000000   0.000000   0.000000  -0.000000
    34  Cl   0.316356  -0.004609   0.000016  -0.000004   0.000003   0.000029
    35  H   -0.011228   0.000801  -0.000092  -0.000364  -0.000113   0.000972
    36  O    0.127953  -0.013898  -0.001195  -0.000198   0.000079  -0.000941
    37  H   -0.010438   0.000220  -0.000014  -0.000074   0.000001   0.000100
               7          8          9         10         11         12
     1  Pt  -0.000686   0.001817  -0.000258   0.000560   0.013757   0.000820
     2  N    0.004231   0.000043  -0.000113   0.000002  -0.001515   0.000125
     3  C    0.005702  -0.000079   0.000238  -0.000095  -0.000091   0.000012
     4  C    0.388674  -0.023618  -0.021343  -0.023631   0.000001  -0.000004
     5  C   -0.057527   0.005766  -0.004701  -0.005048  -0.000140   0.000000
     6  O   -0.050884  -0.002131   0.001546   0.000323  -0.000262   0.000001
     7  C    5.157647   0.349935   0.367281   0.364256   0.000001  -0.000000
     8  H    0.349935   0.495571  -0.018218  -0.022707  -0.000001   0.000000
     9  H    0.367281  -0.018218   0.443405  -0.018781  -0.000000   0.000000
    10  H    0.364256  -0.022707  -0.018781   0.471844  -0.000000  -0.000000
    11  C    0.000001  -0.000001  -0.000000  -0.000000   5.191735   0.361968
    12  H   -0.000000   0.000000   0.000000  -0.000000   0.361968   0.452188
    13  H   -0.000002  -0.000001  -0.000001   0.000000   0.358537  -0.021738
    14  H   -0.000002  -0.000005  -0.000001   0.000000   0.340690  -0.019704
    15  N   -0.005573  -0.000013   0.000110   0.000621   0.000000  -0.000000
    16  O    0.000062   0.000002   0.000009   0.000003   0.000000   0.000000
    17  O    0.005877   0.000436   0.005699   0.000546   0.000000   0.000000
    18  N    0.000000  -0.000000  -0.000000   0.000000  -0.052128   0.001744
    19  C   -0.000000   0.000000   0.000000  -0.000000   0.373817  -0.019189
    20  C    0.000000  -0.000000  -0.000000   0.000000   0.007278   0.000040
    21  C    0.000000  -0.000000   0.000000   0.000000  -0.051133  -0.004493
    22  O    0.000000   0.000000  -0.000000   0.000000   0.003526  -0.000050
    23  C    0.000000  -0.000000  -0.000000  -0.000000  -0.000097  -0.000000
    24  H   -0.000000  -0.000000  -0.000000  -0.000000   0.000000   0.000000
    25  H   -0.000000  -0.000000  -0.000000   0.000000   0.000001  -0.000001
    26  H    0.000000   0.000000  -0.000000   0.000000   0.000001  -0.000000
    27  C   -0.000096   0.000001  -0.000000   0.000002  -0.000125   0.000001
    28  H    0.000000  -0.000000  -0.000000   0.000000  -0.000005  -0.000002
    29  H    0.000001  -0.000000  -0.000000  -0.000000  -0.000002  -0.000001
    30  H   -0.000001  -0.000000   0.000000  -0.000001  -0.000001   0.000000
    31  N   -0.000000   0.000000   0.000000  -0.000000  -0.006538   0.000502
    32  O    0.000000   0.000000  -0.000000   0.000000   0.006099   0.004545
    33  O    0.000000   0.000000   0.000000   0.000000   0.000067   0.000001
    34  Cl   0.000000   0.000000  -0.000000  -0.000000  -0.000052   0.000002
    35  H    0.000011  -0.000010  -0.000000  -0.000001   0.000002  -0.000000
    36  O   -0.000005  -0.000004  -0.000000  -0.000001   0.000005   0.000000
    37  H   -0.000005  -0.000007  -0.000000   0.000000   0.000002   0.000000
              13         14         15         16         17         18
     1  Pt   0.004814   0.012468   0.000897   0.000010   0.000078   0.103693
     2  N   -0.000034  -0.001233   0.004871   0.000107  -0.000035  -0.012807
     3  C    0.000568  -0.000417  -0.045067  -0.016545   0.004181   0.001806
     4  C    0.000166   0.000131  -0.052865   0.004627  -0.014773  -0.000004
     5  C    0.000203  -0.000113   0.177862  -0.071434  -0.075587   0.000060
     6  O   -0.000181   0.000468   0.002442  -0.000030   0.000008  -0.000010
     7  C   -0.000002  -0.000002  -0.005573   0.000062   0.005877   0.000000
     8  H   -0.000001  -0.000005  -0.000013   0.000002   0.000436  -0.000000
     9  H   -0.000001  -0.000001   0.000110   0.000009   0.005699  -0.000000
    10  H    0.000000   0.000000   0.000621   0.000003   0.000546   0.000000
    11  C    0.358537   0.340690   0.000000   0.000000   0.000000  -0.052128
    12  H   -0.021738  -0.019704  -0.000000   0.000000   0.000000   0.001744
    13  H    0.492196  -0.026649  -0.000002  -0.000001   0.000000   0.000917
    14  H   -0.026649   0.492651  -0.000000  -0.000000   0.000000  -0.005043
    15  N   -0.000002  -0.000000   5.880108   0.337158   0.346919  -0.000000
    16  O   -0.000001  -0.000000   0.337158   8.179542  -0.091186  -0.000000
    17  O    0.000000   0.000000   0.346919  -0.091186   8.173765  -0.000000
    18  N    0.000917  -0.005043  -0.000000  -0.000000  -0.000000   6.753487
    19  C   -0.022482  -0.023403   0.000000   0.000000  -0.000000   0.409656
    20  C   -0.000163   0.000060   0.000000   0.000000   0.000000  -0.098402
    21  C   -0.004775   0.004870   0.000000  -0.000000  -0.000000  -0.003545
    22  O   -0.000038  -0.000033   0.000000  -0.000000  -0.000000   0.181023
    23  C    0.000000   0.000002   0.000000   0.000000   0.000000   0.004215
    24  H   -0.000000  -0.000000  -0.000000   0.000000   0.000000  -0.000060
    25  H    0.000000  -0.000000   0.000000   0.000000   0.000000  -0.000070
    26  H   -0.000000  -0.000000   0.000000   0.000000   0.000000   0.000033
    27  C   -0.000075  -0.000012  -0.006522   0.006372   0.000083  -0.001133
    28  H   -0.000039   0.000004   0.000688   0.001678   0.000006  -0.000176
    29  H    0.000020  -0.000002  -0.000033   0.000567   0.000002  -0.001333
    30  H   -0.000003  -0.000000   0.000765   0.003686  -0.000010   0.000084
    31  N    0.000784  -0.000033  -0.000000  -0.000000  -0.000000   0.004574
    32  O    0.001202   0.000555  -0.000000  -0.000000  -0.000000   0.000104
    33  O    0.000004   0.000002  -0.000000  -0.000000  -0.000000  -0.000025
    34  Cl  -0.000001   0.000043   0.000000  -0.000000  -0.000000  -0.002967
    35  H    0.000000   0.000004   0.000000  -0.000000  -0.000000   0.000084
    36  O    0.000000  -0.000048   0.000000  -0.000000  -0.000000  -0.001438
    37  H    0.000000   0.000005   0.000000   0.000000   0.000000   0.000097
              19         20         21         22         23         24
     1  Pt  -0.030803  -0.004607   0.003594  -0.008201  -0.000792   0.000115
     2  N   -0.001394   0.000043  -0.000118  -0.000030   0.000000  -0.000000
     3  C    0.000499  -0.000066  -0.000157   0.000015  -0.000000   0.000000
     4  C   -0.000033   0.000000   0.000001   0.000000  -0.000000  -0.000000
     5  C   -0.000054   0.000000  -0.000001  -0.000001   0.000000   0.000000
     6  O   -0.000086   0.000000  -0.000001  -0.000000   0.000000  -0.000000
     7  C   -0.000000   0.000000   0.000000   0.000000   0.000000  -0.000000
     8  H    0.000000  -0.000000  -0.000000   0.000000  -0.000000  -0.000000
     9  H    0.000000  -0.000000   0.000000  -0.000000  -0.000000  -0.000000
    10  H   -0.000000   0.000000   0.000000   0.000000  -0.000000  -0.000000
    11  C    0.373817   0.007278  -0.051133   0.003526  -0.000097   0.000000
    12  H   -0.019189   0.000040  -0.004493  -0.000050  -0.000000   0.000000
    13  H   -0.022482  -0.000163  -0.004775  -0.000038   0.000000  -0.000000
    14  H   -0.023403   0.000060   0.004870  -0.000033   0.000002  -0.000000
    15  N    0.000000   0.000000   0.000000   0.000000   0.000000  -0.000000
    16  O    0.000000   0.000000  -0.000000  -0.000000   0.000000   0.000000
    17  O   -0.000000   0.000000  -0.000000  -0.000000   0.000000   0.000000
    18  N    0.409656  -0.098402  -0.003545   0.181023   0.004215  -0.000060
    19  C    4.737076  -0.059896   0.372117  -0.083915   0.005554   0.000055
    20  C   -0.059896   4.780304   0.398409   0.253713   0.393727  -0.022166
    21  C    0.372117   0.398409   5.250769  -0.010101  -0.061025  -0.005407
    22  O   -0.083915   0.253713  -0.010101   7.990879  -0.049677   0.001172
    23  C    0.005554   0.393727  -0.061025  -0.049677   5.154784   0.364827
    24  H    0.000055  -0.022166  -0.005407   0.001172   0.364827   0.470608
    25  H    0.000032  -0.021693  -0.004419   0.000806   0.365886  -0.021002
    26  H   -0.000052  -0.021851   0.005857  -0.001955   0.349534  -0.020708
    27  C    0.000401   0.000159   0.000142  -0.001452   0.000005   0.000001
    28  H    0.000147   0.000210   0.000342  -0.000093  -0.000005  -0.000002
    29  H   -0.001410   0.000626  -0.000607   0.003501  -0.000014  -0.000011
    30  H    0.000026  -0.000008   0.000002   0.000002  -0.000000  -0.000000
    31  N   -0.044261  -0.050432   0.179857   0.002449  -0.005548   0.000596
    32  O   -0.016169   0.004416  -0.073013  -0.000030   0.000072   0.000003
    33  O    0.004301  -0.016983  -0.074106   0.000002   0.007479   0.002563
    34  Cl  -0.000557  -0.000030   0.000038  -0.002788  -0.000001   0.000000
    35  H   -0.000002   0.000000  -0.000000  -0.000000   0.000000  -0.000000
    36  O    0.000002  -0.000000  -0.000000   0.000007   0.000000  -0.000000
    37  H   -0.000007   0.000000  -0.000000   0.000000   0.000000   0.000000
              25         26         27         28         29         30
     1  Pt   0.000111   0.001557   0.010445   0.003418   0.009315   0.001171
     2  N    0.000000  -0.000000  -0.051383   0.000987  -0.005186   0.001755
     3  C   -0.000000   0.000000   0.375114  -0.020625  -0.022949  -0.020383
     4  C    0.000000   0.000000   0.007433  -0.000125   0.000066  -0.000004
     5  C   -0.000000  -0.000000  -0.053057  -0.004298   0.004891  -0.005441
     6  O   -0.000000  -0.000000   0.003547  -0.000051  -0.000041  -0.000043
     7  C   -0.000000   0.000000  -0.000096   0.000000   0.000001  -0.000001
     8  H   -0.000000   0.000000   0.000001  -0.000000  -0.000000  -0.000000
     9  H   -0.000000  -0.000000  -0.000000  -0.000000  -0.000000   0.000000
    10  H    0.000000   0.000000   0.000002   0.000000  -0.000000  -0.000001
    11  C    0.000001   0.000001  -0.000125  -0.000005  -0.000002  -0.000001
    12  H   -0.000001  -0.000000   0.000001  -0.000002  -0.000001   0.000000
    13  H    0.000000  -0.000000  -0.000075  -0.000039   0.000020  -0.000003
    14  H   -0.000000  -0.000000  -0.000012   0.000004  -0.000002  -0.000000
    15  N    0.000000   0.000000  -0.006522   0.000688  -0.000033   0.000765
    16  O    0.000000   0.000000   0.006372   0.001678   0.000567   0.003686
    17  O    0.000000   0.000000   0.000083   0.000006   0.000002  -0.000010
    18  N   -0.000070   0.000033  -0.001133  -0.000176  -0.001333   0.000084
    19  C    0.000032  -0.000052   0.000401   0.000147  -0.001410   0.000026
    20  C   -0.021693  -0.021851   0.000159   0.000210   0.000626  -0.000008
    21  C   -0.004419   0.005857   0.000142   0.000342  -0.000607   0.000002
    22  O    0.000806  -0.001955  -0.001452  -0.000093   0.003501   0.000002
    23  C    0.365886   0.349534   0.000005  -0.000005  -0.000014  -0.000000
    24  H   -0.021002  -0.020708   0.000001  -0.000002  -0.000011  -0.000000
    25  H    0.455308  -0.019152  -0.000000   0.000000   0.000001  -0.000000
    26  H   -0.019152   0.485995  -0.000003  -0.000000  -0.000006  -0.000000
    27  C   -0.000000  -0.000003   5.198296   0.360452   0.339378   0.362564
    28  H    0.000000  -0.000000   0.360452   0.473333  -0.024283  -0.021033
    29  H    0.000001  -0.000006   0.339378  -0.024283   0.490814  -0.021061
    30  H   -0.000000  -0.000000   0.362564  -0.021033  -0.021061   0.459138
    31  N    0.000418  -0.000013  -0.000003  -0.000009  -0.000002   0.000000
    32  O    0.000004   0.000001  -0.000000  -0.000001   0.000000  -0.000000
    33  O    0.002046   0.000450  -0.000000  -0.000000   0.000000   0.000000
    34  Cl   0.000000  -0.000015  -0.000014   0.000000  -0.000039   0.000000
    35  H    0.000000   0.000000  -0.000047   0.000001   0.000005  -0.000007
    36  O   -0.000000   0.000000  -0.000014  -0.000000  -0.000040  -0.000000
    37  H   -0.000000  -0.000000  -0.000000   0.000000   0.000001   0.000000
              31         32         33         34         35         36
     1  Pt   0.000854   0.000218  -0.000082   0.316356  -0.011228   0.127953
     2  N    0.000000  -0.000000   0.000000  -0.004609   0.000801  -0.013898
     3  C    0.000001  -0.000000   0.000000   0.000016  -0.000092  -0.001195
     4  C   -0.000000   0.000000   0.000000  -0.000004  -0.000364  -0.000198
     5  C    0.000000  -0.000000   0.000000   0.000003  -0.000113   0.000079
     6  O    0.000000  -0.000000  -0.000000   0.000029   0.000972  -0.000941
     7  C   -0.000000   0.000000   0.000000   0.000000   0.000011  -0.000005
     8  H    0.000000   0.000000   0.000000   0.000000  -0.000010  -0.000004
     9  H    0.000000  -0.000000   0.000000  -0.000000  -0.000000  -0.000000
    10  H   -0.000000   0.000000   0.000000  -0.000000  -0.000001  -0.000001
    11  C   -0.006538   0.006099   0.000067  -0.000052   0.000002   0.000005
    12  H    0.000502   0.004545   0.000001   0.000002  -0.000000   0.000000
    13  H    0.000784   0.001202   0.000004  -0.000001   0.000000   0.000000
    14  H   -0.000033   0.000555   0.000002   0.000043   0.000004  -0.000048
    15  N   -0.000000  -0.000000  -0.000000   0.000000   0.000000   0.000000
    16  O   -0.000000  -0.000000  -0.000000  -0.000000  -0.000000  -0.000000
    17  O   -0.000000  -0.000000  -0.000000  -0.000000  -0.000000  -0.000000
    18  N    0.004574   0.000104  -0.000025  -0.002967   0.000084  -0.001438
    19  C   -0.044261  -0.016169   0.004301  -0.000557  -0.000002   0.000002
    20  C   -0.050432   0.004416  -0.016983  -0.000030   0.000000  -0.000000
    21  C    0.179857  -0.073013  -0.074106   0.000038  -0.000000  -0.000000
    22  O    0.002449  -0.000030   0.000002  -0.002788  -0.000000   0.000007
    23  C   -0.005548   0.000072   0.007479  -0.000001   0.000000   0.000000
    24  H    0.000596   0.000003   0.002563   0.000000  -0.000000  -0.000000
    25  H    0.000418   0.000004   0.002046   0.000000   0.000000  -0.000000
    26  H   -0.000013   0.000001   0.000450  -0.000015   0.000000   0.000000
    27  C   -0.000003  -0.000000  -0.000000  -0.000014  -0.000047  -0.000014
    28  H   -0.000009  -0.000001  -0.000000   0.000000   0.000001  -0.000000
    29  H   -0.000002   0.000000   0.000000  -0.000039   0.000005  -0.000040
    30  H    0.000000  -0.000000   0.000000   0.000000  -0.000007  -0.000000
    31  N    5.867794   0.340183   0.346961   0.000000  -0.000000   0.000000
    32  O    0.340183   8.185356  -0.090660  -0.000000  -0.000000  -0.000000
    33  O    0.346961  -0.090660   8.175479  -0.000000   0.000000  -0.000000
    34  Cl   0.000000  -0.000000  -0.000000  16.836852   0.000461  -0.005612
    35  H   -0.000000  -0.000000   0.000000   0.000461   0.307996   0.225900
    36  O    0.000000  -0.000000  -0.000000  -0.005612   0.225900   8.153429
    37  H   -0.000000  -0.000000   0.000000   0.000142  -0.015202   0.228937
              37
     1  Pt  -0.010438
     2  N    0.000220
     3  C   -0.000014
     4  C   -0.000074
     5  C    0.000001
     6  O    0.000100
     7  C   -0.000005
     8  H   -0.000007
     9  H   -0.000000
    10  H    0.000000
    11  C    0.000002
    12  H    0.000000
    13  H    0.000000
    14  H    0.000005
    15  N    0.000000
    16  O    0.000000
    17  O    0.000000
    18  N    0.000097
    19  C   -0.000007
    20  C    0.000000
    21  C   -0.000000
    22  O    0.000000
    23  C    0.000000
    24  H    0.000000
    25  H   -0.000000
    26  H   -0.000000
    27  C   -0.000000
    28  H    0.000000
    29  H    0.000001
    30  H    0.000000
    31  N   -0.000000
    32  O   -0.000000
    33  O    0.000000
    34  Cl   0.000142
    35  H   -0.015202
    36  O    0.228937
    37  H    0.280518
 Mulliken charges:
               1
     1  Pt   0.288456
     2  N   -0.321113
     3  C    0.382202
     4  C    0.439147
     5  C    0.093134
     6  O   -0.308877
     7  C   -0.528900
     8  H    0.213225
     9  H    0.245129
    10  H    0.232108
    11  C   -0.545397
    12  H    0.243233
    13  H    0.216775
    14  H    0.224746
    15  N    0.357633
    16  O   -0.354626
    17  O   -0.356008
    18  N   -0.282439
    19  C    0.400030
    20  C    0.457311
    21  C    0.076900
    22  O   -0.278728
    23  C   -0.528923
    24  H    0.229417
    25  H    0.241723
    26  H    0.220327
    27  C   -0.550461
    28  H    0.229482
    29  H    0.227834
    30  H    0.238801
    31  N    0.361866
    32  O   -0.362886
    33  O   -0.357498
    34  Cl  -0.137256
    35  H    0.490828
    36  O   -0.712918
    37  H    0.515725
 Sum of Mulliken charges =   1.00000
 Mulliken charges with hydrogens summed into heavy atoms:
               1
     1  Pt   0.288456
     2  N   -0.321113
     3  C    0.382202
     4  C    0.439147
     5  C    0.093134
     6  O   -0.308877
     7  C    0.161562
    11  C    0.139357
    15  N    0.357633
    16  O   -0.354626
    17  O   -0.356008
    18  N   -0.282439
    19  C    0.400030
    20  C    0.457311
    21  C    0.076900
    22  O   -0.278728
    23  C    0.162544
    27  C    0.145655
    31  N    0.361866
    32  O   -0.362886
    33  O   -0.357498
    34  Cl  -0.137256
    36  O    0.293635
 Electronic spatial extent (au):  <R**2>=           9329.7803
 Charge=              1.0000 electrons
 Dipole moment (field-independent basis, Debye):
    X=             -5.9840    Y=             -0.1670    Z=              0.4098  Tot=              6.0003
 Quadrupole moment (field-independent basis, Debye-Ang):
   XX=           -109.8055   YY=           -163.7685   ZZ=           -138.7420
   XY=             21.9930   XZ=            -19.8900   YZ=             -4.9699
 Traceless Quadrupole moment (field-independent basis, Debye-Ang):
   XX=             27.6331   YY=            -26.3299   ZZ=             -1.3033
   XY=             21.9930   XZ=            -19.8900   YZ=             -4.9699
 Octapole moment (field-independent basis, Debye-Ang**2):
  XXX=            -18.8919  YYY=           -220.4883  ZZZ=             -2.1335  XYY=            -59.1172
  XXY=           -122.3497  XXZ=              6.8712  XZZ=             -1.9961  YZZ=            -51.6664
  YYZ=              4.8427  XYZ=            -37.5358
 Hexadecapole moment (field-independent basis, Debye-Ang**3):
 XXXX=          -6031.9111 YYYY=          -3975.1453 ZZZZ=          -1094.0543 XXXY=            221.1205
 XXXZ=           -399.0699 YYYX=             89.3928 YYYZ=            -73.0083 ZZZX=            -36.6607
 ZZZY=            -11.2139 XXYY=          -1953.5467 XXZZ=          -1142.1659 YYZZ=           -842.8346
 XXYZ=              0.4141 YYXZ=           -135.3671 ZZXY=             33.1107
 N-N= 2.495622270922D+03 E-N=-8.960946017887D+03  KE= 1.627333732354D+03
   1 Symmetry operations used in ECPInt.
 ECPInt:  NShTT=    8646 NPrTT=   53439 LenC2=    7539 LenP2D=   26529.
 LDataN:  DoStor=T MaxTD1= 8 Len=  415
 Number of processors reduced to  29 by ecpmxn.
 Calling FoFJK, ICntrl=      2127 FMM=F ISym2X=0 I1Cent= 0 IOpClX= 0 NMat=1 NMatS=1 NMatT=0.
 Defaulting to unpruned grid for atomic number  78.
 Defaulting to unpruned grid for atomic number  78.
 Defaulting to unpruned grid for atomic number  78.
 Defaulting to unpruned grid for atomic number  78.
 Defaulting to unpruned grid for atomic number  78.
 Defaulting to unpruned grid for atomic number  78.
 Defaulting to unpruned grid for atomic number  78.
 Defaulting to unpruned grid for atomic number  78.
 Defaulting to unpruned grid for atomic number  78.
 Defaulting to unpruned grid for atomic number  78.
 Defaulting to unpruned grid for atomic number  78.
 Defaulting to unpruned grid for atomic number  78.
 Defaulting to unpruned grid for atomic number  78.
 Defaulting to unpruned grid for atomic number  78.
 Defaulting to unpruned grid for atomic number  78.
 Defaulting to unpruned grid for atomic number  78.
 Defaulting to unpruned grid for atomic number  78.
 Defaulting to unpruned grid for atomic number  78.
 Defaulting to unpruned grid for atomic number  78.
 Defaulting to unpruned grid for atomic number  78.
 Defaulting to unpruned grid for atomic number  78.
 Defaulting to unpruned grid for atomic number  78.
 Defaulting to unpruned grid for atomic number  78.
 Defaulting to unpruned grid for atomic number  78.
 Defaulting to unpruned grid for atomic number  78.
 Defaulting to unpruned grid for atomic number  78.
 Defaulting to unpruned grid for atomic number  78.
 Defaulting to unpruned grid for atomic number  78.
 Defaulting to unpruned grid for atomic number  78.
 Defaulting to unpruned grid for atomic number  78.
 Defaulting to unpruned grid for atomic number  78.
[...]
    17  O    0.007471   0.000469   0.002324   0.002252  -0.000000  -0.000000
    18  N    0.000000  -0.000000  -0.000000   0.000000  -0.049650   0.000710
    19  C    0.000000  -0.000000   0.000000  -0.000000   0.380424  -0.019409
    20  C   -0.000000  -0.000000   0.000000   0.000000   0.006937  -0.000080
    21  C    0.000000   0.000000  -0.000000   0.000000  -0.051019  -0.003557
    22  O   -0.000000  -0.000000  -0.000000  -0.000000   0.003317  -0.000046
    23  C   -0.000000  -0.000000   0.000000  -0.000000  -0.000096   0.000000
    24  H    0.000000  -0.000000   0.000000  -0.000000   0.000001   0.000000
    25  H   -0.000000  -0.000000  -0.000000   0.000000   0.000001  -0.000000
    26  H   -0.000000   0.000000  -0.000000  -0.000000   0.000001  -0.000000
    27  C   -0.000099   0.000001   0.000001   0.000001   0.000000  -0.000000
    28  H   -0.000000  -0.000000  -0.000000   0.000000  -0.000000  -0.000000
    29  H    0.000001  -0.000000  -0.000000  -0.000000   0.000000   0.000000
    30  H    0.000000  -0.000000   0.000000  -0.000000  -0.000000   0.000000
    31  N    0.000000   0.000000  -0.000000   0.000000  -0.006110   0.000541
    32  O   -0.000000   0.000000   0.000000   0.000000   0.005392   0.001579
    33  O   -0.000000   0.000000   0.000000   0.000000   0.000056   0.000000
    34  Cl   0.000000   0.000000  -0.000000  -0.000000  -0.001052  -0.000204
    35  H   -0.000000   0.000000   0.000000   0.000000   0.000002  -0.000000
    36  O   -0.000000  -0.000000   0.000000  -0.000000   0.000003   0.000000
    37  H   -0.000000   0.000000   0.000000  -0.000000   0.000002   0.000000
              13         14         15         16         17         18
     1  Pt   0.001970   0.009340   0.000725  -0.000120  -0.000048   0.102459
     2  N    0.000002  -0.000001   0.004420   0.000112  -0.000033  -0.009196
     3  C   -0.000000  -0.000000  -0.044151  -0.016299   0.004441   0.000021
     4  C   -0.000000   0.000000  -0.049838   0.004543  -0.017353   0.000157
     5  C    0.000000  -0.000000   0.183342  -0.074582  -0.075959  -0.000044
     6  O   -0.000007  -0.000059   0.002347  -0.000030   0.000000   0.000074
     7  C   -0.000000  -0.000000  -0.005300   0.000065   0.007471   0.000000
     8  H   -0.000000  -0.000001  -0.000016   0.000001   0.000469  -0.000000
     9  H   -0.000000   0.000000   0.000491   0.000003   0.002324  -0.000000
    10  H    0.000000   0.000000   0.000431   0.000003   0.002252   0.000000
    11  C    0.360468   0.343413   0.000000  -0.000000  -0.000000  -0.049650
    12  H   -0.022970  -0.020489  -0.000000   0.000000  -0.000000   0.000710
    13  H    0.478937  -0.023254   0.000000   0.000000   0.000000   0.001727
    14  H   -0.023254   0.481706   0.000000   0.000000  -0.000000  -0.004777
    15  N    0.000000   0.000000   5.867071   0.336572   0.341364  -0.000000
    16  O    0.000000   0.000000   0.336572   8.176276  -0.082450  -0.000000
    17  O    0.000000  -0.000000   0.341364  -0.082450   8.174807  -0.000000
    18  N    0.001727  -0.004777  -0.000000  -0.000000  -0.000000   6.751029
    19  C   -0.020530  -0.021415  -0.000000  -0.000000  -0.000000   0.419581
    20  C   -0.000036   0.000046   0.000000  -0.000000   0.000000  -0.099118
    21  C   -0.005623   0.005106   0.000000   0.000000   0.000000  -0.000937
    22  O   -0.000044  -0.000027   0.000000  -0.000000  -0.000000   0.172992
    23  C    0.000000   0.000001   0.000000  -0.000000  -0.000000   0.004107
    24  H   -0.000000  -0.000000  -0.000000   0.000000   0.000000  -0.000064
    25  H    0.000000  -0.000000  -0.000000   0.000000   0.000000  -0.000054
    26  H   -0.000000  -0.000000   0.000000   0.000000   0.000000   0.000035
    27  C   -0.000000   0.000000  -0.005942   0.005838   0.000063   0.000032
    28  H   -0.000000   0.000000   0.000627   0.003203   0.000003   0.000001
    29  H    0.000000  -0.000000  -0.000027   0.000564   0.000001   0.000042
    30  H   -0.000000  -0.000000   0.000614   0.001983   0.000001  -0.000000
    31  N    0.000703  -0.000024   0.000000   0.000000  -0.000000   0.004301
    32  O    0.003745   0.000566   0.000000  -0.000000  -0.000000   0.000107
    33  O    0.000006   0.000001  -0.000000  -0.000000   0.000000  -0.000023
    34  Cl   0.000112  -0.003907   0.000000  -0.000000  -0.000000  -0.002880
    35  H    0.000000   0.000009  -0.000000   0.000000  -0.000000   0.000069
    36  O    0.000000  -0.000014  -0.000000   0.000000  -0.000000  -0.001229
    37  H   -0.000000   0.000012   0.000000   0.000000   0.000000   0.000105
              19         20         21         22         23         24
     1  Pt  -0.031460  -0.003303   0.000436   0.000527  -0.000926   0.000103
     2  N   -0.000260   0.000165  -0.000046  -0.000231   0.000000  -0.000000
     3  C   -0.000003   0.000011  -0.000004  -0.000022   0.000000   0.000000
     4  C    0.000005  -0.000000   0.000001  -0.000030  -0.000000  -0.000000
     5  C   -0.000000   0.000002  -0.000000   0.000011   0.000000  -0.000000
     6  O   -0.000063  -0.000027   0.000011  -0.000046  -0.000000  -0.000000
     7  C    0.000000  -0.000000   0.000000  -0.000000  -0.000000   0.000000
     8  H   -0.000000  -0.000000   0.000000  -0.000000  -0.000000  -0.000000
     9  H    0.000000   0.000000  -0.000000  -0.000000   0.000000   0.000000
    10  H   -0.000000   0.000000   0.000000  -0.000000  -0.000000  -0.000000
    11  C    0.380424   0.006937  -0.051019   0.003317  -0.000096   0.000001
    12  H   -0.019409  -0.000080  -0.003557  -0.000046   0.000000   0.000000
    13  H   -0.020530  -0.000036  -0.005623  -0.000044   0.000000  -0.000000
    14  H   -0.021415   0.000046   0.005106  -0.000027   0.000001  -0.000000
    15  N   -0.000000   0.000000   0.000000   0.000000   0.000000  -0.000000
    16  O   -0.000000  -0.000000   0.000000  -0.000000  -0.000000   0.000000
    17  O   -0.000000   0.000000   0.000000  -0.000000  -0.000000   0.000000
    18  N    0.419581  -0.099118  -0.000937   0.172992   0.004107  -0.000064
    19  C    4.706940  -0.055985   0.370954  -0.083749   0.005283   0.000027
    20  C   -0.055985   4.779994   0.408807   0.247557   0.391273  -0.021114
    21  C    0.370954   0.408807   5.233480  -0.009192  -0.057253  -0.004895
    22  O   -0.083749   0.247557  -0.009192   8.016951  -0.048745   0.001106
    23  C    0.005283   0.391273  -0.057253  -0.048745   5.146137   0.365927
    24  H    0.000027  -0.021114  -0.004895   0.001106   0.365927   0.466764
    25  H    0.000038  -0.021647  -0.004458   0.000900   0.367712  -0.021710
    26  H   -0.000036  -0.022619   0.005699  -0.002075   0.350420  -0.021287
    27  C    0.000002  -0.000002  -0.000000  -0.000020   0.000000  -0.000000
    28  H   -0.000000  -0.000001   0.000000  -0.000018  -0.000000  -0.000000
    29  H    0.000001   0.000000  -0.000001  -0.000121  -0.000000   0.000000
    30  H    0.000000   0.000000  -0.000000  -0.000000  -0.000000   0.000000
    31  N   -0.043336  -0.049922   0.183188   0.002343  -0.005448   0.000514
    32  O   -0.016034   0.004533  -0.074722  -0.000029   0.000065   0.000004
    33  O    0.004346  -0.017457  -0.076177   0.000001   0.007508   0.002575
    34  Cl  -0.002096   0.000035  -0.000258  -0.000409  -0.000001   0.000000
    35  H   -0.000004   0.000000  -0.000000   0.000000   0.000000  -0.000000
    36  O    0.000008  -0.000000   0.000000   0.000005   0.000000  -0.000000
    37  H   -0.000001   0.000000   0.000000   0.000000   0.000000   0.000000
              25         26         27         28         29         30
     1  Pt  -0.000036   0.001616   0.009071   0.001931   0.009531   0.000945
     2  N    0.000000  -0.000001  -0.049447   0.001531  -0.004634   0.000909
     3  C   -0.000000  -0.000001   0.374528  -0.020360  -0.022974  -0.019952
     4  C    0.000000  -0.000000   0.007130  -0.000051   0.000053  -0.000078
     5  C    0.000000   0.000000  -0.052042  -0.004785   0.004879  -0.004000
     6  O   -0.000000  -0.000000   0.003398  -0.000044  -0.000022  -0.000045
     7  C   -0.000000  -0.000000  -0.000099  -0.000000   0.000001   0.000000
     8  H   -0.000000   0.000000   0.000001  -0.000000  -0.000000  -0.000000
     9  H   -0.000000  -0.000000   0.000001  -0.000000  -0.000000   0.000000
    10  H    0.000000  -0.000000   0.000001   0.000000  -0.000000  -0.000000
    11  C    0.000001   0.000001   0.000000  -0.000000   0.000000  -0.000000
    12  H   -0.000000  -0.000000  -0.000000  -0.000000   0.000000   0.000000
    13  H    0.000000  -0.000000  -0.000000  -0.000000   0.000000  -0.000000
    14  H   -0.000000  -0.000000   0.000000   0.000000  -0.000000  -0.000000
    15  N   -0.000000   0.000000  -0.005942   0.000627  -0.000027   0.000614
    16  O    0.000000   0.000000   0.005838   0.003203   0.000564   0.001983
    17  O    0.000000   0.000000   0.000063   0.000003   0.000001   0.000001
    18  N   -0.000054   0.000035   0.000032   0.000001   0.000042  -0.000000
    19  C    0.000038  -0.000036   0.000002  -0.000000   0.000001   0.000000
    20  C   -0.021647  -0.022619  -0.000002  -0.000001   0.000000   0.000000
    21  C   -0.004458   0.005699  -0.000000   0.000000  -0.000001  -0.000000
    22  O    0.000900  -0.002075  -0.000020  -0.000018  -0.000121  -0.000000
    23  C    0.367712   0.350420   0.000000  -0.000000  -0.000000  -0.000000
    24  H   -0.021710  -0.021287  -0.000000  -0.000000   0.000000   0.000000
    25  H    0.457792  -0.020558  -0.000000  -0.000000   0.000000  -0.000000
    26  H   -0.020558   0.499691  -0.000000  -0.000001  -0.000002  -0.000000
    27  C   -0.000000  -0.000000   5.172904   0.363061   0.344018   0.363202
    28  H   -0.000000  -0.000001   0.363061   0.470783  -0.022021  -0.023286
    29  H    0.000000  -0.000002   0.344018  -0.022021   0.486134  -0.021222
    30  H   -0.000000  -0.000000   0.363202  -0.023286  -0.021222   0.469135
    31  N    0.000466  -0.000017   0.000000   0.000000   0.000000  -0.000000
    32  O    0.000002   0.000001  -0.000000   0.000000   0.000000   0.000000
    33  O    0.002016   0.000479  -0.000000   0.000000  -0.000000   0.000000
    34  Cl  -0.000000  -0.000000  -0.000020   0.000000  -0.000006   0.000001
    35  H    0.000000  -0.000000  -0.000032   0.000000   0.000044  -0.000001
    36  O   -0.000000   0.000000   0.000094   0.000004  -0.001237  -0.000139
    37  H   -0.000000   0.000000   0.000009   0.000000   0.000030   0.000002
              31         32         33         34         35         36
     1  Pt   0.000934  -0.000120  -0.000086   0.296651  -0.008908   0.142453
     2  N   -0.000000  -0.000000  -0.000000  -0.004427   0.000377  -0.003318
     3  C   -0.000000  -0.000000  -0.000000   0.000031   0.000083  -0.000310
     4  C    0.000000  -0.000000   0.000000  -0.000003  -0.000000  -0.000006
     5  C    0.000000   0.000000   0.000000   0.000003   0.000000   0.000017
     6  O    0.000000  -0.000000  -0.000000   0.000034  -0.000004  -0.000025
     7  C    0.000000  -0.000000  -0.000000   0.000000  -0.000000  -0.000000
     8  H    0.000000   0.000000   0.000000   0.000000   0.000000  -0.000000
     9  H   -0.000000   0.000000   0.000000  -0.000000   0.000000   0.000000
    10  H    0.000000   0.000000   0.000000  -0.000000   0.000000  -0.000000
    11  C   -0.006110   0.005392   0.000056  -0.001052   0.000002   0.000003
    12  H    0.000541   0.001579   0.000000  -0.000204  -0.000000   0.000000
    13  H    0.000703   0.003745   0.000006   0.000112   0.000000   0.000000
    14  H   -0.000024   0.000566   0.000001  -0.003907   0.000009  -0.000014
    15  N    0.000000   0.000000  -0.000000   0.000000  -0.000000  -0.000000
    16  O    0.000000  -0.000000  -0.000000  -0.000000   0.000000   0.000000
    17  O   -0.000000  -0.000000   0.000000  -0.000000  -0.000000  -0.000000
    18  N    0.004301   0.000107  -0.000023  -0.002880   0.000069  -0.001229
    19  C   -0.043336  -0.016034   0.004346  -0.002096  -0.000004   0.000008
    20  C   -0.049922   0.004533  -0.017457   0.000035   0.000000  -0.000000
    21  C    0.183188  -0.074722  -0.076177  -0.000258  -0.000000   0.000000
    22  O    0.002343  -0.000029   0.000001  -0.000409   0.000000   0.000005
    23  C   -0.005448   0.000065   0.007508  -0.000001   0.000000   0.000000
    24  H    0.000514   0.000004   0.002575   0.000000  -0.000000  -0.000000
    25  H    0.000466   0.000002   0.002016  -0.000000   0.000000  -0.000000
    26  H   -0.000017   0.000001   0.000479  -0.000000  -0.000000   0.000000
    27  C    0.000000  -0.000000  -0.000000  -0.000020  -0.000032   0.000094
    28  H    0.000000   0.000000   0.000000   0.000000   0.000000   0.000004
    29  H    0.000000   0.000000  -0.000000  -0.000006   0.000044  -0.001237
    30  H   -0.000000   0.000000   0.000000   0.000001  -0.000001  -0.000139
    31  N    5.864058   0.337401   0.342030   0.000001  -0.000000   0.000000
    32  O    0.337401   8.173893  -0.082479  -0.000000  -0.000000  -0.000000
    33  O    0.342030  -0.082479   8.175228   0.000000   0.000000  -0.000000
    34  Cl   0.000001  -0.000000   0.000000  16.882976  -0.000152  -0.020371
    35  H   -0.000000  -0.000000   0.000000  -0.000152   0.278617   0.232326
    36  O    0.000000  -0.000000  -0.000000  -0.020371   0.232326   8.159352
    37  H   -0.000000  -0.000000   0.000000   0.022100  -0.014182   0.219822
              37
     1  Pt  -0.007782
     2  N    0.000405
     3  C   -0.000075
     4  C    0.000000
     5  C   -0.000001
     6  O    0.000004
     7  C   -0.000000
     8  H    0.000000
     9  H    0.000000
    10  H   -0.000000
    11  C    0.000002
    12  H    0.000000
    13  H   -0.000000
    14  H    0.000012
    15  N    0.000000
    16  O    0.000000
    17  O    0.000000
    18  N    0.000105
    19  C   -0.000001
    20  C    0.000000
    21  C    0.000000
    22  O    0.000000
    23  C    0.000000
    24  H    0.000000
    25  H   -0.000000
    26  H    0.000000
    27  C    0.000009
    28  H    0.000000
    29  H    0.000030
    30  H    0.000002
    31  N   -0.000000
    32  O   -0.000000
    33  O    0.000000
    34  Cl   0.022100
    35  H   -0.014182
    36  O    0.219822
    37  H    0.269763
 Mulliken charges:
               1
     1  Pt   0.274853
     2  N   -0.301308
     3  C    0.386877
     4  C    0.446082
     5  C    0.084640
     6  O   -0.306295
     7  C   -0.525762
     8  H    0.209512
     9  H    0.233598
    10  H    0.235852
    11  C   -0.533225
    12  H    0.242429
    13  H    0.224793
    14  H    0.233769
    15  N    0.367270
    16  O   -0.355682
    17  O   -0.357354
    18  N   -0.289579
    19  C    0.406774
    20  C    0.451951
    21  C    0.080458
    22  O   -0.300905
    23  C   -0.525966
    24  H    0.232049
    25  H    0.239538
    26  H    0.208655
    27  C   -0.535747
    28  H    0.229426
    29  H    0.226968
    30  H    0.231929
    31  N    0.368378
    32  O   -0.353903
    33  O   -0.358024
    34  Cl  -0.166157
    35  H    0.511754
    36  O   -0.727434
    37  H    0.509786
 Sum of Mulliken charges =   1.00000
 Mulliken charges with hydrogens summed into heavy atoms:
               1
     1  Pt   0.274853
     2  N   -0.301308
     3  C    0.386877
     4  C    0.446082
     5  C    0.084640
     6  O   -0.306295
     7  C    0.153200
    11  C    0.167766
    15  N    0.367270
    16  O   -0.355682
    17  O   -0.357354
    18  N   -0.289579
    19  C    0.406774
    20  C    0.451951
    21  C    0.080458
    22  O   -0.300905
    23  C    0.154276
    27  C    0.152576
    31  N    0.368378
    32  O   -0.353903
    33  O   -0.358024
    34  Cl  -0.166157
    36  O    0.294106
 Electronic spatial extent (au):  <R**2>=           9995.0421
 Charge=              1.0000 electrons
 Dipole moment (field-independent basis, Debye):
    X=             -3.5543    Y=             -0.2189    Z=              1.5832  Tot=              3.8971
 Quadrupole moment (field-independent basis, Debye-Ang):
   XX=           -148.5171   YY=           -128.1225   ZZ=           -131.1308
   XY=             11.2677   XZ=            -14.5185   YZ=             -5.7678
 Traceless Quadrupole moment (field-independent basis, Debye-Ang):
   XX=            -12.5937   YY=              7.8010   ZZ=              4.7927
   XY=             11.2677   XZ=            -14.5185   YZ=             -5.7678
 Octapole moment (field-independent basis, Debye-Ang**2):
  XXX=              5.9140  YYY=           -209.2108  ZZZ=              5.7669  XYY=            -47.1302
  XXY=           -116.1630  XXZ=             20.0848  XZZ=             -7.9716  YZZ=            -21.0821
  YYZ=              9.9156  XYZ=            -42.4712
 Hexadecapole moment (field-independent basis, Debye-Ang**3):
 XXXX=          -8375.5077 YYYY=          -2916.3100 ZZZZ=          -1268.5305 XXXY=             21.4381
 XXXZ=           -256.2069 YYYX=            105.1421 YYYZ=            -68.8821 ZZZX=            -78.8297
 ZZZY=            -17.1308 XXYY=          -2022.2596 XXZZ=          -1374.9681 YYZZ=           -680.3203
 XXYZ=             -6.4817 YYXZ=           -108.8273 ZZXY=             15.1736
 N-N= 2.446690712290D+03 E-N=-8.864220395830D+03  KE= 1.627165100383D+03
 Unable to Open any file for archive entry.
 1\1\GINC-E1841\FOpt\RB3LYP\GenECP\C10H14Cl1N4O7Pt1(1+)\PHARMD\01-Aug-2
 025\0\\# B3LYP/genecp Geom=PrintInputOrient Integral=(Grid=UltraFine) 
 Opt\\CLR\\1,1\Pt,0.3153652765,0.1008829421,-1.3904425549\N,-1.28613463
 85,0.3270558733,-0.1086972347\C,-2.0821220429,1.3311672121,0.216770167
 8\C,-2.7545080052,-0.490457465,1.3642217318\C,-3.0339010569,0.83946293
 53,1.15458304\O,-1.6951804724,-0.8121500391,0.6032453935\C,-3.34866699
 06,-1.562308995,2.1998614947\H,-2.8035342633,-2.497960947,2.0590190155
 \H,-3.3259023801,-1.2722388489,3.2550613831\H,-4.4016640359,-1.7026854
 269,1.9357316626\C,2.436243312,-2.4441931206,-0.1292120745\H,3.4027231
 452,-2.603400514,-0.6175470618\H,2.3318617343,-3.218547193,0.635455398
 4\H,1.64176234,-2.5319679198,-0.8714992126\N,-4.0967659577,1.585558153
 2,1.7809201823\O,-4.2040492642,2.7691788307,1.4702686562\O,-4.80623500
 83,0.971618208,2.5744472876\N,1.584706178,-0.1387257896,0.1317235668\C
 ,2.4136586993,-1.0976174254,0.5072341236\C,2.8016308017,0.721652204,1.
 7870331829\C,3.2018843763,-0.5756966846,1.5718009852\O,1.8158491186,0.
 9978587373,0.9161737521\C,3.210593256,1.7999950056,2.7192707051\H,3.10
 85667068,1.4621889961,3.7551207803\H,4.2682401128,2.0394487874,2.56842
 63158\H,2.6041798517,2.6929994792,2.5543712224\C,-1.9191299079,2.69851
 10941,-0.3550196642\H,-1.8149339789,3.4294515461,0.4517249925\H,-1.045
 7338411,2.7410735068,-1.008905022\H,-2.8148031494,2.9777865723,-0.9183
 720565\N,4.233201907,-1.2685469597,2.3040432984\O,4.4597182275,-2.4319
 065023,1.9830694995\O,4.7972346673,-0.6323949788,3.1913672956\Cl,2.026
 6691872,-0.0839947212,-2.9325464845\H,-1.4272900639,-0.4206408184,-3.2
 95339182\O,-0.9316977013,0.3920027409,-3.0777543402\H,-0.2998361398,0.
 5295415247,-3.8186102459\\Version=ES64L-G16RevC.01\State=1-A\HF=-1714.
 2036129\RMSD=4.793e-09\RMSF=3.021e-06\Dipole=-1.5105247,-0.2451722,-0.
 0952081\Quadrupole=-3.2824855,-2.640957,5.9234425,12.4506962,9.3179642
 ,1.954245\PG=C01 [X(C10H14Cl1N4O7Pt1)]\\@
 The archive entry for this job was punched.


            THE IRISH PIG
 'TWAS AN EVENING IN NOVEMBER,
 AS I VERY WELL REMEMBER
 I WAS STROLLING DOWN THE STREET IN DRUNKEN PRIDE,
 BUT MY KNEES WERE ALL A'FLUTTER
 SO I LANDED IN THE GUTTER,
 AND A PIG CAME UP AND LAY DOWN BY MY SIDE.

 YES, I LAY THERE IN THE GUTTER
 THINKING THOUGHTS I COULD NOT UTTER
 WHEN A COLLEEN PASSING BY DID SOFTLY SAY,
 'YE CAN TELL A MAN THAT BOOZES
 BY THE COMPANY THAT HE CHOOSES.' -
 AT THAT, THE PIG GOT UP AND WALKED AWAY!
     -- THE ECONOMIST, AUGUST 23, 1986
 Job cpu time:       0 days  8 hours 44 minutes 34.1 seconds.
 Elapsed time:       0 days  0 hours 12 minutes 45.6 seconds.
 File lengths (MBytes):  RWF=     90 Int=      0 D2E=      0 Chk=     13 Scr=      1
 Normal termination of Gaussian 16 at Fri Aug  1 16:49:35 2025.
