 Entering Gaussian System, Link 0=g16
 Input=CIX_small_opt.gjf
 Output=CIX_small_opt.log
 Initial command:
 /opt/exp_soft/local/skylake/gaussian/g16/C.01/l1.exe "/mnt/storage_5/scratch/pl0251-02/35465162/Gau-135788.inp" -scrdir="/mnt/storage_5/scratch/pl0251-02/35465162/"
 Entering Link 1 = /opt/exp_soft/local/skylake/gaussian/g16/C.01/l1.exe PID=    135789.
  
 Copyright (c) 1988-2019, Gaussian, Inc.  All Rights Reserved.
  
 This is part of the Gaussian(R) 16 program.  It is based on
 the Gaussian(R) 09 system (copyright 2009, Gaussian, Inc.),
 the Gaussian(R) 03 system (copyright 2003, Gaussian, Inc.),
 the Gaussian(R) 98 system (copyright 1998, Gaussian, Inc.),
 the Gaussian(R) 94 system (copyright 1995, Gaussian, Inc.),
 the Gaussian 92(TM) system (copyright 1992, Gaussian, Inc.),
 the Gaussian 90(TM) system (copyright 1990, Gaussian, Inc.),
 the Gaussian 88(TM) system (copyright 1988, Gaussian, Inc.),
 the Gaussian 86(TM) system (copyright 1986, Carnegie Mellon
 University), and the Gaussian 82(TM) system (copyright 1983,
 Carnegie Mellon University). Gaussian is a federally registered
 trademark of Gaussian, Inc.
  
 This software contains proprietary and confidential information,
 including trade secrets, belonging to Gaussian, Inc.
  
 This software is provided under written license and may be
 used, copied, transmitted, or stored only in accord with that
 written license.
  
 The following legend is applicable only to US Government
 contracts under FAR:
  
                    RESTRICTED RIGHTS LEGEND
  
 Use, reproduction and disclosure by the US Government is
 subject to restrictions as set forth in subparagraphs (a)
 and (c) of the Commercial Computer Software - Restricted
 Rights clause in FAR 52.227-19.
  
 Gaussian, Inc.
 340 Quinnipiac St., Bldg. 40, Wallingford CT 06492
  
  
 ---------------------------------------------------------------
 Warning -- This program may not be used in any manner that
 competes with the business of Gaussian, Inc. or will provide
 assistance to any competitor of Gaussian, Inc.  The licensee
 of this program is prohibited from giving any competitor of
 Gaussian, Inc. access to this program.  By using this program,
 the user acknowledges that Gaussian, Inc. is engaged in the
 business of creating and licensing software in the field of
 computational chemistry and represents and warrants to the
 licensee that it is not a competitor of Gaussian, Inc. and that
 it will not use this program in any manner prohibited above.
 ---------------------------------------------------------------
  

 Cite this work as:
 Gaussian 16, Revision C.01,
 M. J. Frisch, G. W. Trucks, H. B. Schlegel, G. E. Scuseria, 
 M. A. Robb, J. R. Cheeseman, G. Scalmani, V. Barone, 
 G. A. Petersson, H. Nakatsuji, X. Li, M. Caricato, A. V. Marenich, 
 J. Bloino, B. G. Janesko, R. Gomperts, B. Mennucci, H. P. Hratchian, 
 J. V. Ortiz, A. F. Izmaylov, J. L. Sonnenberg, D. Williams-Young, 
 F. Ding, F. Lipparini, F. Egidi, J. Goings, B. Peng, A. Petrone, 
 T. Henderson, D. Ranasinghe, V. G. Zakrzewski, J. Gao, N. Rega, 
 G. Zheng, W. Liang, M. Hada, M. Ehara, K. Toyota, R. Fukuda, 
 J. Hasegawa, M. Ishida, T. Nakajima, Y. Honda, O. Kitao, H. Nakai, 
 T. Vreven, K. Throssell, J. A. Montgomery, Jr., J. E. Peralta, 
 F. Ogliaro, M. J. Bearpark, J. J. Heyd, E. N. Brothers, K. N. Kudin, 
 V. N. Staroverov, T. A. Keith, R. Kobayashi, J. Normand, 
 K. Raghavachari, A. P. Rendell, J. C. Burant, S. S. Iyengar, 
 J. Tomasi, M. Cossi, J. M. Millam, M. Klene, C. Adamo, R. Cammi, 
 J. W. Ochterski, R. L. Martin, K. Morokuma, O. Farkas, 
 J. B. Foresman, and D. J. Fox, Gaussian, Inc., Wallingford CT, 2019.
 
 ******************************************
 Gaussian 16:  ES64L-G16RevC.01  3-Jul-2019
                 2-Aug-2025 
 ******************************************
 %Chk=CIX_small_opt.chk
 %Mem=3000MB
 %NProcShared=48
 Will use up to   48 processors via shared memory.
 ------------------------------------------------------------------
 # B3LYP/genecp Geom=PrintInputOrient Integral=(Grid=UltraFine) Opt
 ------------------------------------------------------------------
 1/18=20,19=15,26=4,38=1/1,3;
 2/9=2110,12=2,17=6,18=5,40=1/2;
 3/5=7,11=2,16=1,17=8,25=1,30=1,71=1,74=-5,75=-5/1,2,3;
 4//1;
 5/5=2,38=5/2;
 6/7=2,8=2,9=2,10=2,28=1/1;
 7//1,2,3,16;
 1/18=20,19=15,26=4/3(2);
 2/9=2110/2;
 99//99;
 2/9=2110/2;
 3/5=7,6=1,11=2,16=1,17=8,25=1,30=1,71=1,74=-5,75=-5,82=7/1,2,3;
 4/5=5,16=3,69=1/1;
 5/5=2,38=5/2;
 7//1,2,3,16;
 1/18=20,19=15,26=4/3(-5);
 2/9=2110/2;
 6/7=2,8=2,9=2,10=2,19=2,28=1/1;
 99/9=1/99;
 ---
 CLR
 ---
 Symbolic Z-matrix:
 Charge =  1 Multiplicity = 1
 Pt                    0.363     0.126    -1.603 
 N                    -1.08     -0.055    -0.19 
 C                    -1.507     0.701     0.798 
 C                    -2.994    -0.96      0.461 
 C                    -2.734     0.139     1.254 
 O                    -1.976    -1.097    -0.383 
 C                    -4.107    -1.918     0.357 
 H                    -3.8      -2.789    -0.236 
 H                    -4.448    -2.226     1.354 
 H                    -4.946    -1.415    -0.153 
 C                     1.298    -1.838     1.154 
 H                     2.036    -2.62      1.378 
 H                     0.651    -1.728     2.038 
 H                     0.689    -2.136     0.291 
 N                    -3.573     0.644     2.285 
 O                    -3.152     1.572     2.967 
 O                    -4.675     0.125     2.435 
 N                     1.751     0.187    -0.172 
 C                     1.996    -0.558     0.887 
 C                     3.321     1.27      0.965 
 C                     3.003     0.11      1.642 
 O                     2.56      1.316    -0.128 
 C                     4.267     2.375     1.196 
 H                     4.08      2.824     2.184 
 H                     5.297     1.985     1.203 
 H                     4.159     3.133     0.41 
 C                    -0.793     1.917     1.253 
 H                    -0.432     1.773     2.283 
 H                     0.054     2.146     0.596 
 H                    -1.491     2.766     1.261 
 N                     3.586    -0.323     2.87 
 O                     3.153    -1.347     3.383 
 O                     4.488     0.36      3.343 
 Cl                    1.986     0.336    -3.255 
 H                    -2.016     0.519    -2.641 
 O                    -1.116     0.112    -3.037 
 H                    -1.336    -0.804    -3.283 
 

 GradGradGradGradGradGradGradGradGradGradGradGradGradGradGradGradGradGrad
 Berny optimization.
 Initialization pass.
                           ----------------------------
                           !    Initial Parameters    !
                           ! (Angstroms and Degrees)  !
 --------------------------                            --------------------------
 ! Name  Definition              Value          Derivative Info.                !
 --------------------------------------------------------------------------------
 ! R1    R(1,2)                  2.0277         estimate D2E/DX2                !
 ! R2    R(1,18)                 1.9945         estimate D2E/DX2                !
 ! R3    R(1,34)                 2.3254         estimate D2E/DX2                !
 ! R4    R(1,36)                 2.0601         estimate D2E/DX2                !
 ! R5    R(2,3)                  1.3153         estimate D2E/DX2                !
 ! R6    R(2,6)                  1.3877         estimate D2E/DX2                !
 ! R7    R(3,5)                  1.4245         estimate D2E/DX2                !
 ! R8    R(3,27)                 1.4817         estimate D2E/DX2                !
 ! R9    R(4,5)                  1.3799         estimate D2E/DX2                !
 ! R10   R(4,6)                  1.3294         estimate D2E/DX2                !
 ! R11   R(4,7)                  1.4722         estimate D2E/DX2                !
 ! R12   R(5,15)                 1.4219         estimate D2E/DX2                !
 ! R13   R(7,8)                  1.0975         estimate D2E/DX2                !
 ! R14   R(7,9)                  1.0978         estimate D2E/DX2                !
 ! R15   R(7,10)                 1.1032         estimate D2E/DX2                !
 ! R16   R(11,12)                1.0983         estimate D2E/DX2                !
 ! R17   R(11,13)                1.101          estimate D2E/DX2                !
 ! R18   R(11,14)                1.0975         estimate D2E/DX2                !
 ! R19   R(11,19)                1.4822         estimate D2E/DX2                !
 ! R20   R(15,16)                1.2262         estimate D2E/DX2                !
 ! R21   R(15,17)                1.2273         estimate D2E/DX2                !
 ! R22   R(18,19)                1.3178         estimate D2E/DX2                !
 ! R23   R(18,22)                1.3896         estimate D2E/DX2                !
 ! R24   R(19,21)                1.4249         estimate D2E/DX2                !
 ! R25   R(20,21)                1.3802         estimate D2E/DX2                !
 ! R26   R(20,22)                1.3326         estimate D2E/DX2                !
 ! R27   R(20,23)                1.4729         estimate D2E/DX2                !
 ! R28   R(21,31)                1.4267         estimate D2E/DX2                !
 ! R29   R(23,24)                1.1012         estimate D2E/DX2                !
 ! R30   R(23,25)                1.1014         estimate D2E/DX2                !
 ! R31   R(23,26)                1.0973         estimate D2E/DX2                !
 ! R32   R(27,28)                1.1009         estimate D2E/DX2                !
 ! R33   R(27,29)                1.0961         estimate D2E/DX2                !
 ! R34   R(27,30)                1.0991         estimate D2E/DX2                !
 ! R35   R(31,32)                1.2244         estimate D2E/DX2                !
 ! R36   R(31,33)                1.2263         estimate D2E/DX2                !
 ! R37   R(35,36)                1.0642         estimate D2E/DX2                !
 ! R38   R(36,37)                0.9736         estimate D2E/DX2                !
 ! A1    A(2,1,18)              89.8856         estimate D2E/DX2                !
 ! A2    A(2,1,36)              88.4843         estimate D2E/DX2                !
 ! A3    A(18,1,34)             91.2167         estimate D2E/DX2                !
 ! A4    A(34,1,36)             90.4113         estimate D2E/DX2                !
 ! A5    A(1,2,3)              134.6816         estimate D2E/DX2                !
 ! A6    A(1,2,6)              115.4412         estimate D2E/DX2                !
 ! A7    A(3,2,6)              109.0527         estimate D2E/DX2                !
 ! A8    A(2,3,5)              107.0566         estimate D2E/DX2                !
 ! A9    A(2,3,27)             123.0881         estimate D2E/DX2                !
 ! A10   A(5,3,27)             129.8309         estimate D2E/DX2                !
 ! A11   A(5,4,6)              107.615          estimate D2E/DX2                !
 ! A12   A(5,4,7)              134.5303         estimate D2E/DX2                !
 ! A13   A(6,4,7)              117.8397         estimate D2E/DX2                !
 ! A14   A(3,5,4)              107.0094         estimate D2E/DX2                !
 ! A15   A(3,5,15)             126.8846         estimate D2E/DX2                !
 ! A16   A(4,5,15)             126.0393         estimate D2E/DX2                !
 ! A17   A(2,6,4)              109.1917         estimate D2E/DX2                !
 ! A18   A(4,7,8)              110.0672         estimate D2E/DX2                !
 ! A19   A(4,7,9)              110.6862         estimate D2E/DX2                !
 ! A20   A(4,7,10)             108.1149         estimate D2E/DX2                !
 ! A21   A(8,7,9)              110.7893         estimate D2E/DX2                !
 ! A22   A(8,7,10)             108.9534         estimate D2E/DX2                !
 ! A23   A(9,7,10)             108.1519         estimate D2E/DX2                !
 ! A24   A(12,11,13)           107.5925         estimate D2E/DX2                !
 ! A25   A(12,11,14)           109.8709         estimate D2E/DX2                !
 ! A26   A(12,11,19)           109.5831         estimate D2E/DX2                !
 ! A27   A(13,11,14)           109.415          estimate D2E/DX2                !
 ! A28   A(13,11,19)           109.5784         estimate D2E/DX2                !
 ! A29   A(14,11,19)           110.7419         estimate D2E/DX2                !
 ! A30   A(5,15,16)            118.0002         estimate D2E/DX2                !
 ! A31   A(5,15,17)            117.9196         estimate D2E/DX2                !
 ! A32   A(16,15,17)           124.08           estimate D2E/DX2                !
 ! A33   A(1,18,19)            133.5253         estimate D2E/DX2                !
 ! A34   A(1,18,22)            116.9175         estimate D2E/DX2                !
 ! A35   A(19,18,22)           109.0039         estimate D2E/DX2                !
 ! A36   A(11,19,18)           123.0545         estimate D2E/DX2                !
 ! A37   A(11,19,21)           129.9576         estimate D2E/DX2                !
 ! A38   A(18,19,21)           106.9879         estimate D2E/DX2                !
 ! A39   A(21,20,22)           107.442          estimate D2E/DX2                !
 ! A40   A(21,20,23)           134.5542         estimate D2E/DX2                !
 ! A41   A(22,20,23)           118.0032         estimate D2E/DX2                !
 ! A42   A(19,21,20)           107.2735         estimate D2E/DX2                !
 ! A43   A(19,21,31)           127.0561         estimate D2E/DX2                !
 ! A44   A(20,21,31)           125.6704         estimate D2E/DX2                !
 ! A45   A(18,22,20)           109.2916         estimate D2E/DX2                !
 ! A46   A(20,23,24)           109.7269         estimate D2E/DX2                !
 ! A47   A(20,23,25)           109.6331         estimate D2E/DX2                !
 ! A48   A(20,23,26)           110.0417         estimate D2E/DX2                !
 ! A49   A(24,23,25)           107.3061         estimate D2E/DX2                !
 ! A50   A(24,23,26)           110.1386         estimate D2E/DX2                !
 ! A51   A(25,23,26)           109.9506         estimate D2E/DX2                !
 ! A52   A(3,27,28)            109.7533         estimate D2E/DX2                !
 ! A53   A(3,27,29)            111.0848         estimate D2E/DX2                !
 ! A54   A(3,27,30)            109.2769         estimate D2E/DX2                !
 ! A55   A(28,27,29)           109.5559         estimate D2E/DX2                !
 ! A56   A(28,27,30)           107.6061         estimate D2E/DX2                !
 ! A57   A(29,27,30)           109.4938         estimate D2E/DX2                !
 ! A58   A(21,31,32)           118.0305         estimate D2E/DX2                !
 ! A59   A(21,31,33)           117.6157         estimate D2E/DX2                !
 ! A60   A(32,31,33)           124.3536         estimate D2E/DX2                !
 ! A61   A(1,36,35)            110.2151         estimate D2E/DX2                !
 ! A62   A(1,36,37)            110.1505         estimate D2E/DX2                !
 ! A63   A(35,36,37)           105.2326         estimate D2E/DX2                !
 ! A64   L(2,1,34,36,-1)       178.8957         estimate D2E/DX2                !
 ! A65   L(18,1,36,34,-1)      181.628          estimate D2E/DX2                !
 ! A66   L(2,1,34,36,-2)       179.934          estimate D2E/DX2                !
 ! A67   L(18,1,36,34,-2)      181.5169         estimate D2E/DX2                !
 ! D1    D(18,1,2,3)            62.4204         estimate D2E/DX2                !
 ! D2    D(18,1,2,6)          -129.3792         estimate D2E/DX2                !
 ! D3    D(36,1,2,3)          -116.0649         estimate D2E/DX2                !
 ! D4    D(36,1,2,6)            52.1355         estimate D2E/DX2                !
 ! D5    D(2,1,18,19)           48.8849         estimate D2E/DX2                !
 ! D6    D(2,1,18,22)         -121.4827         estimate D2E/DX2                !
 ! D7    D(34,1,18,19)        -131.2103         estimate D2E/DX2                !
 ! D8    D(34,1,18,22)          58.4222         estimate D2E/DX2                !
 ! D9    D(2,1,36,35)           29.3222         estimate D2E/DX2                !
 ! D10   D(2,1,36,37)          -86.3587         estimate D2E/DX2                !
 ! D11   D(34,1,36,35)        -150.6118         estimate D2E/DX2                !
 ! D12   D(34,1,36,37)          93.7073         estimate D2E/DX2                !
 ! D13   D(1,2,3,5)            168.0376         estimate D2E/DX2                !
 ! D14   D(1,2,3,27)           -10.3258         estimate D2E/DX2                !
 ! D15   D(6,2,3,5)             -0.6966         estimate D2E/DX2                !
 ! D16   D(6,2,3,27)          -179.0599         estimate D2E/DX2                !
 ! D17   D(1,2,6,4)           -168.9071         estimate D2E/DX2                !
 ! D18   D(3,2,6,4)              2.2444         estimate D2E/DX2                !
 ! D19   D(2,3,5,4)             -1.0082         estimate D2E/DX2                !
 ! D20   D(2,3,5,15)          -178.1665         estimate D2E/DX2                !
 ! D21   D(27,3,5,4)           177.2062         estimate D2E/DX2                !
 ! D22   D(27,3,5,15)            0.0478         estimate D2E/DX2                !
 ! D23   D(2,3,27,28)         -115.2727         estimate D2E/DX2                !
 ! D24   D(2,3,27,29)            6.0347         estimate D2E/DX2                !
 ! D25   D(2,3,27,30)          126.9481         estimate D2E/DX2                !
 ! D26   D(5,3,27,28)           66.7649         estimate D2E/DX2                !
 ! D27   D(5,3,27,29)         -171.9277         estimate D2E/DX2                !
 ! D28   D(5,3,27,30)          -51.0143         estimate D2E/DX2                !
 ! D29   D(6,4,5,3)              2.3727         estimate D2E/DX2                !
 ! D30   D(6,4,5,15)           179.5619         estimate D2E/DX2                !
 ! D31   D(7,4,5,3)           -176.131          estimate D2E/DX2                !
 ! D32   D(7,4,5,15)             1.0582         estimate D2E/DX2                !
 ! D33   D(5,4,6,2)             -2.8336         estimate D2E/DX2                !
 ! D34   D(7,4,6,2)            175.9602         estimate D2E/DX2                !
 ! D35   D(5,4,7,8)           -165.8216         estimate D2E/DX2                !
 ! D36   D(5,4,7,9)            -43.0121         estimate D2E/DX2                !
 ! D37   D(5,4,7,10)            75.2755         estimate D2E/DX2                !
 ! D38   D(6,4,7,8)             15.7912         estimate D2E/DX2                !
 ! D39   D(6,4,7,9)            138.6007         estimate D2E/DX2                !
 ! D40   D(6,4,7,10)          -103.1117         estimate D2E/DX2                !
 ! D41   D(3,5,15,16)           -8.7267         estimate D2E/DX2                !
 ! D42   D(3,5,15,17)          171.1396         estimate D2E/DX2                !
 ! D43   D(4,5,15,16)          174.6344         estimate D2E/DX2                !
 ! D44   D(4,5,15,17)           -5.4993         estimate D2E/DX2                !
 ! D45   D(12,11,19,18)        130.0883         estimate D2E/DX2                !
 ! D46   D(12,11,19,21)        -49.9804         estimate D2E/DX2                !
 ! D47   D(13,11,19,18)       -112.0711         estimate D2E/DX2                !
 ! D48   D(13,11,19,21)         67.8602         estimate D2E/DX2                !
 ! D49   D(14,11,19,18)          8.7226         estimate D2E/DX2                !
 ! D50   D(14,11,19,21)       -171.3462         estimate D2E/DX2                !
 ! D51   D(1,18,19,11)           8.8295         estimate D2E/DX2                !
 ! D52   D(1,18,19,21)        -171.1154         estimate D2E/DX2                !
 ! D53   D(22,18,19,11)        179.7503         estimate D2E/DX2                !
 ! D54   D(22,18,19,21)         -0.1946         estimate D2E/DX2                !
 ! D55   D(1,18,22,20)         172.96           estimate D2E/DX2                !
 ! D56   D(19,18,22,20)          0.3324         estimate D2E/DX2                !
 ! D57   D(11,19,21,20)       -179.941          estimate D2E/DX2                !
 ! D58   D(11,19,21,31)          0.0537         estimate D2E/DX2                !
 ! D59   D(18,19,21,20)         -0.0012         estimate D2E/DX2                !
 ! D60   D(18,19,21,31)        179.9935         estimate D2E/DX2                !
 ! D61   D(22,20,21,19)          0.2031         estimate D2E/DX2                !
 ! D62   D(22,20,21,31)       -179.7917         estimate D2E/DX2                !
 ! D63   D(23,20,21,19)       -179.5077         estimate D2E/DX2                !
 ! D64   D(23,20,21,31)          0.4975         estimate D2E/DX2                !
 ! D65   D(21,20,22,18)         -0.3244         estimate D2E/DX2                !
 ! D66   D(23,20,22,18)        179.4422         estimate D2E/DX2                !
 ! D67   D(21,20,23,24)        -56.1811         estimate D2E/DX2                !
 ! D68   D(21,20,23,25)         61.4288         estimate D2E/DX2                !
 ! D69   D(21,20,23,26)       -177.523          estimate D2E/DX2                !
 ! D70   D(22,20,23,24)        124.1314         estimate D2E/DX2                !
 ! D71   D(22,20,23,25)       -118.2587         estimate D2E/DX2                !
 ! D72   D(22,20,23,26)          2.7895         estimate D2E/DX2                !
 ! D73   D(19,21,31,32)         -3.4224         estimate D2E/DX2                !
 ! D74   D(19,21,31,33)        176.7356         estimate D2E/DX2                !
 ! D75   D(20,21,31,32)        176.5714         estimate D2E/DX2                !
 ! D76   D(20,21,31,33)         -3.2706         estimate D2E/DX2                !
 --------------------------------------------------------------------------------
 Trust Radius=3.00D-01 FncErr=1.00D-07 GrdErr=1.00D-06 EigMax=2.50D+02 EigMin=1.00D-04
 Number of steps in this run=    191 maximum allowed number of steps=    222.
 GradGradGradGradGradGradGradGradGradGradGradGradGradGradGradGradGradGrad

                          Input orientation:                          
 ---------------------------------------------------------------------
 Center     Atomic      Atomic             Coordinates (Angstroms)
 Number     Number       Type             X           Y           Z
 ---------------------------------------------------------------------
      1         78           0        0.363000    0.126000   -1.603000
      2          7           0       -1.080000   -0.055000   -0.190000
      3          6           0       -1.507000    0.701000    0.798000
      4          6           0       -2.994000   -0.960000    0.461000
      5          6           0       -2.734000    0.139000    1.254000
      6          8           0       -1.976000   -1.097000   -0.383000
      7          6           0       -4.107000   -1.918000    0.357000
      8          1           0       -3.800000   -2.789000   -0.236000
      9          1           0       -4.448000   -2.226000    1.354000
     10          1           0       -4.946000   -1.415000   -0.153000
     11          6           0        1.298000   -1.838000    1.154000
     12          1           0        2.036000   -2.620000    1.378000
     13          1           0        0.651000   -1.728000    2.038000
     14          1           0        0.689000   -2.136000    0.291000
     15          7           0       -3.573000    0.644000    2.285000
     16          8           0       -3.152000    1.572000    2.967000
     17          8           0       -4.675000    0.125000    2.435000
     18          7           0        1.751000    0.187000   -0.172000
     19          6           0        1.996000   -0.558000    0.887000
     20          6           0        3.321000    1.270000    0.965000
     21          6           0        3.003000    0.110000    1.642000
     22          8           0        2.560000    1.316000   -0.128000
     23          6           0        4.267000    2.375000    1.196000
     24          1           0        4.080000    2.824000    2.184000
     25          1           0        5.297000    1.985000    1.203000
     26          1           0        4.159000    3.133000    0.410000
     27          6           0       -0.793000    1.917000    1.253000
     28          1           0       -0.432000    1.773000    2.283000
     29          1           0        0.054000    2.146000    0.596000
     30          1           0       -1.491000    2.766000    1.261000
     31          7           0        3.586000   -0.323000    2.870000
     32          8           0        3.153000   -1.347000    3.383000
     33          8           0        4.488000    0.360000    3.343000
     34         17           0        1.986000    0.336000   -3.255000
     35          1           0       -2.016000    0.519000   -2.641000
     36          8           0       -1.116000    0.112000   -3.037000
     37          1           0       -1.336000   -0.804000   -3.283000
 ---------------------------------------------------------------------
                    Distance matrix (angstroms):
                    1          2          3          4          5
     1  Pt   0.000000
     2  N    2.027703   0.000000
     3  C    3.097148   1.315298   0.000000
     4  C    4.087657   2.214999   2.254697   0.000000
     5  C    4.213553   2.204198   1.424538   1.379946   0.000000
     6  O    2.907757   1.387742   2.201710   1.329447   2.186785
     7  C    5.291544   3.596207   3.716671   1.472192   2.630777
     8  H    5.262745   3.856847   4.301988   2.116763   3.453931
     9  H    6.117309   4.294252   4.186400   2.124693   2.922503
    10  H    5.715126   4.098405   4.148322   2.096265   3.047541
    11  C    3.511776   3.261949   3.800169   4.435358   4.491720
    12  H    4.384724   4.329816   4.890633   5.375629   5.511838
    13  H    4.095991   3.280133   3.477730   4.045093   3.944435
    14  H    2.968191   2.773316   3.623263   3.869931   4.221365
    15  N    5.556704   3.581798   2.546129   2.497005   1.421938
    16  O    5.943992   4.111808   2.858186   3.565953   2.272132
    17  O    6.456538   4.455003   3.612170   2.810634   2.272100
    18  N    1.994499   2.841382   3.437973   4.922532   4.706485
    19  C    3.055265   3.297683   3.723441   5.024259   4.795143
    20  C    4.080824   4.739035   4.864281   6.716111   6.166499
    21  C    4.183286   4.478207   4.626199   6.205133   5.750179
    22  O    2.901471   3.890127   4.216182   6.031087   5.596578
    23  C    5.304113   6.034592   6.024928   8.024000   7.349630
    24  H    5.952870   6.367897   6.135364   8.205417   7.382731
    25  H    5.972761   6.838726   6.935928   8.829738   8.240587
    26  H    5.244410   6.162018   6.178084   8.241399   7.562395
    27  C    3.563812   2.460366   1.481714   3.707937   2.632255
    28  H    4.294838   3.142804   2.123684   4.165671   3.004663
    29  H    3.001913   2.597721   2.136715   4.353822   3.497707
    30  H    4.313863   3.198806   2.116329   4.096594   2.906239
    31  N    5.531461   5.586321   5.592889   7.036011   6.539671
    32  O    5.900341   5.688047   5.708952   6.817145   6.434097
    33  O    6.444633   6.607340   6.521758   8.125801   7.521306
    34  Cl   2.325367   4.352868   5.362936   6.347336   6.530566
    35  H    2.625173   2.685698   3.481225   3.573000   3.978813
    36  O    2.060095   2.852121   3.899619   4.112429   4.585993
    37  H    2.563962   3.192677   4.353025   4.097662   4.840250
                    6          7          8          9         10
     6  O    0.000000
     7  C    2.400584   0.000000
     8  H    2.492278   1.097515   0.000000
     9  H    3.225305   1.097795   1.806924   0.000000
    10  H    2.995818   1.103191   1.791112   1.782351   0.000000
    11  C    3.691954   5.464031   5.368995   5.762557   6.393334
    12  H    4.638620   6.266713   6.057430   6.496004   7.248745
    13  H    3.627745   5.049795   5.109618   5.168719   6.018709
    14  H    2.938711   4.801406   4.566756   5.246603   5.698263
    15  N    3.563666   3.250567   4.265262   3.141542   3.473968
    16  O    4.441738   4.461415   5.449535   4.325065   4.677072
    17  O    4.088888   2.968932   4.048612   2.597555   3.023704
    18  N    3.947620   6.247162   6.298752   6.824870   6.885969
    19  C    4.204784   6.275118   6.311268   6.672739   7.071592
    20  C    5.956341   8.106059   8.284113   8.528229   8.763700
    21  C    5.508894   7.504406   7.629672   7.813913   8.290612
    22  O    5.144209   7.425825   7.570488   7.990879   7.987429
    23  C    7.315947   9.447626   9.684731   9.856236  10.053023
    24  H    7.657602   9.635946   9.972791   9.945762  10.242039
    25  H    8.056715  10.216866  10.373871  10.616984  10.877398
    26  H    7.493996   9.687217   9.941483  10.182852  10.193248
    27  C    3.627696   5.147100   5.779758   5.525728   5.506947
    28  H    4.210510   5.553250   6.204888   5.743109   6.039341
    29  H    3.949227   5.821266   6.316626   6.321151   6.183989
    30  H    4.226196   5.440637   6.199235   5.802806   5.605103
    31  N    6.489756   8.248724   8.383400   8.394333   9.117347
    32  O    6.368037   7.886084   7.969990   7.916103   8.837518
    33  O    7.601922   9.379739   9.561192   9.512918  10.216310
    34  Cl   5.098953   7.433149   7.235868   8.318839   7.793653
    35  H    2.776980   4.393092   4.462011   5.423069   4.302952
    36  O    3.040559   4.958449   4.844095   5.987433   5.031708
    37  H    2.984200   4.708401   4.392691   5.762673   4.816879
                   11         12         13         14         15
    11  C    0.000000
    12  H    1.098337   0.000000
    13  H    1.100984   1.774680   0.000000
    14  H    1.097476   1.797285   1.794413   0.000000
    15  N    5.582663   6.552650   4.850729   5.465261   0.000000
    16  O    5.892162   6.856612   5.120142   5.971894   1.226193
    17  O    6.416468   7.327332   5.653096   6.203334   1.227300
    18  N    2.462541   3.219157   3.124312   2.595870   5.881384
    19  C    1.482192   2.120029   2.121963   2.133905   5.866257
    20  C    3.713208   4.117511   4.155506   4.356895   7.047092
    21  C    2.634364   2.908210   3.011140   3.496329   6.628905
    22  O    3.630962   4.246729   4.195447   3.948735   6.624790
    23  C    5.154231   5.473619   5.533446   5.828399   8.102338
    24  H    5.525818   5.870665   5.700882   6.299518   7.958078
    25  H    5.532606   5.645420   6.005740   6.248844   9.035812
    26  H    5.783571   6.208153   6.211744   6.310105   8.336340
    27  C    4.299082   5.348199   3.998423   4.421377   3.227066
    28  H    4.160152   5.119424   3.672862   4.528243   3.337743
    29  H    4.210838   5.220594   4.176559   4.339559   4.273623
    30  H    5.383938   6.439131   5.038644   5.451872   3.144230
    31  N    3.236483   3.147185   3.358642   4.281451   7.247661
    32  O    2.941181   2.624546   2.866041   4.031660   7.099913
    33  O    4.449610   4.330581   4.559094   5.475137   8.135093
    34  Cl   4.963759   5.495919   5.835938   4.512993   7.854231
    35  H    5.562380   6.513400   5.835661   4.791938   5.167722
    36  O    5.214823   6.073809   5.680098   4.403080   5.885878
    37  H    5.262517   6.032674   5.754562   4.318371   6.172803
                   16         17         18         19         20
    16  O    0.000000
    17  O    2.167109   0.000000
    18  N    5.984226   6.934967   0.000000
    19  C    5.946865   6.882226   1.317775   0.000000
    20  C    6.782252   8.210234   2.220486   2.259047   0.000000
    21  C    6.463520   7.718857   2.205454   1.424885   1.380237
    22  O    6.501654   7.767411   1.389625   2.204585   1.332624
    23  C    7.669603   9.303601   3.604029   3.722286   1.472855
    24  H    7.381221   9.165022   4.234235   4.178898   2.115882
    25  H    8.641057  10.218523   4.206845   4.178912   2.114816
    26  H    7.900993   9.549254   3.849169   4.304600   2.116846
    27  C    2.936273   4.436024   3.390496   3.746746   4.174512
    28  H    2.811878   4.554345   3.648001   3.643839   4.009382
    29  H    4.028592   5.461667   2.703204   3.341805   3.402474
    30  H    2.663643   4.300118   4.383525   4.831979   5.047868
    31  N    7.000077   8.284567   3.589023   2.552570   2.497378
    32  O    6.960362   8.021413   4.117862   2.862025   3.567021
    33  O    7.744670   9.210877   4.458287   3.617281   2.800870
    34  Cl   8.163334   8.762964   3.095531   4.237393   4.523603
    35  H    5.817987   5.743805   4.516246   5.450033   6.484659
    36  O    6.505760   6.527590   4.053830   5.052843   6.086373
    37  H    6.928617   6.686366   4.493325   5.343373   6.635859
                   21         22         23         24         25
    21  C    0.000000
    22  O    2.187141   0.000000
    23  C    2.631888   2.405890   0.000000
    24  H    2.969762   3.151160   1.101233   0.000000
    25  H    2.995126   3.116134   1.101385   1.774083   0.000000
    26  H    3.463046   2.479462   1.097280   1.802442   1.800499
    27  C    4.222107   3.675727   5.081005   5.043366   6.090585
    28  H    3.869842   3.869604   4.860512   4.633848   5.833763
    29  H    3.733097   2.737355   4.261668   4.380651   5.280475
    30  H    5.234074   4.521330   5.771626   5.647241   6.833028
    31  N    1.426661   3.567492   3.247344   3.258564   3.321637
    32  O    2.275177   4.446385   4.458391   4.437812   4.522318
    33  O    2.271811   4.083988   2.952740   2.753369   2.806191
    34  Cl   5.006593   3.326861   5.401100   6.337010   5.792727
    35  H    6.610728   5.281113   7.592325   8.108937   8.390796
    36  O    6.233715   4.839925   7.212222   7.849344   7.912793
    37  H    6.627061   5.443091   7.846088   8.507851   8.479352
                   26         27         28         29         30
    26  H    0.000000
    27  C    5.168327   0.000000
    28  H    5.141499   1.100889   0.000000
    29  H    4.226084   1.096129   1.794796   0.000000
    30  H    5.725503   1.099122   1.775391   1.792666   0.000000
    31  N    4.280638   5.177637   4.569695   4.872583   6.156844
    32  O    5.470024   5.546306   4.878178   5.438034   6.556401
    33  O    4.049723   5.889084   5.227482   5.513271   6.772887
    34  Cl   5.096799   5.526705   6.211372   4.673214   6.195860
    35  H    7.366968   4.314321   5.322344   4.172553   4.533237
    36  O    6.988124   4.665453   5.615085   4.324898   5.065288
    37  H    7.702807   5.317329   6.199879   5.067666   5.780732
                   31         32         33         34         35
    31  N    0.000000
    32  O    1.224432   0.000000
    33  O    1.226304   2.167412   0.000000
    34  Cl   6.364739   6.946756   7.056499   0.000000
    35  H    7.903321   8.154084   8.839432   4.052961   0.000000
    36  O    7.562452   7.846620   8.495335   3.117708   1.064173
    37  H    7.894102   8.054907   8.898188   3.512274   1.620152
                   36         37
    36  O    0.000000
    37  H    0.973639   0.000000
 Stoichiometry    C10H14ClN4O7Pt(1+)
 Framework group  C1[X(C10H14ClN4O7Pt)]
 Deg. of freedom   105
 Full point group                 C1      NOp   1
 Largest Abelian subgroup         C1      NOp   1
 Largest concise Abelian subgroup C1      NOp   1
                         Standard orientation:                         
 ---------------------------------------------------------------------
 Center     Atomic      Atomic             Coordinates (Angstroms)
 Number     Number       Type             X           Y           Z
 ---------------------------------------------------------------------
      1         78           0        0.066863   -1.557787   -0.006928
      2          7           0       -1.371561   -0.130027    0.056429
      3          6           0       -1.709381    0.877527   -0.718633
      4          6           0       -3.359849    0.528277    0.777240
      5          6           0       -2.981752    1.338543   -0.273835
      6          8           0       -2.370100   -0.331191    0.998917
      7          6           0       -4.564831    0.420472    1.616136
      8          1           0       -4.353686   -0.192821    2.501477
      9          1           0       -4.924270    1.415762    1.908292
     10          1           0       -5.354346   -0.069075    1.021123
     11          6           0        0.829050    1.149259    2.096294
     12          1           0        1.486842    1.348894    2.952915
     13          1           0        0.206101    2.043433    1.939599
     14          1           0        0.183747    0.288673    2.314080
     15          7           0       -3.754286    2.389631   -0.839798
     16          8           0       -3.234468    3.083617   -1.706817
     17          8           0       -4.901298    2.543934   -0.431364
     18          7           0        1.469440   -0.143860    0.100835
     19          6           0        1.649596    0.897599    0.887880
     20          6           0        3.152916    0.993165   -0.795625
     21          6           0        2.726974    1.652103    0.339905
     22          8           0        2.388576   -0.088889   -0.939946
     23          6           0        4.207962    1.232869   -1.794985
     24          1           0        4.077953    2.231521   -2.240525
     25          1           0        5.193409    1.219231   -1.303295
     26          1           0        4.168383    0.462823   -2.575681
     27          6           0       -0.871509    1.346260   -1.847232
     28          1           0       -0.515672    2.368619   -1.646933
     29          1           0       -0.012941    0.682876   -2.003059
     30          1           0       -1.480226    1.379318   -2.761803
     31          7           0        3.276684    2.864080    0.853999
     32          8           0        2.748261    3.363117    1.839374
     33          8           0        4.248046    3.338293    0.274860
     34         17           0        1.684681   -3.226251   -0.085840
     35          1           0       -2.271553   -2.557472   -0.658063
     36          8           0       -1.421539   -2.972654   -0.170657
     37          1           0       -1.735436   -3.233112    0.713426
 ---------------------------------------------------------------------
 Rotational constants (GHZ):           0.2127102           0.1562100           0.1054638
 General basis read from cards:  (5D, 7F)
 ======================================================================================================
                                       Pseudopotential Parameters
 ======================================================================================================
  Center     Atomic      Valence      Angular      Power
  Number     Number     Electrons     Momentum     of R      Exponent        Coefficient   SO-Coeffient
 ======================================================================================================
    1         78           18
                                      H and up 
                                                     2        1.0000000        0.00000000    0.00000000
                                      S - H
                                                     2       13.4286510      579.22386100    0.00000000
                                                     2        6.7143260       29.66949100    0.00000000
                                      P - H
                                                     2       10.3659440      280.86077400    0.00000000
                                                     2        5.1829720       26.74538200    0.00000000
                                      D - H
                                                     2        7.6004790      120.39644400    0.00000000
                                                     2        3.8002400       15.81092100    0.00000000
                                      F - H
                                                     2        3.3095690       24.31437600    0.00000000
                                      G - H
                                                     2        5.2772890      -24.21867500    0.00000000
    2          7
                                   No pseudopotential on this center.
    3          6
                                   No pseudopotential on this center.
    4          6
                                   No pseudopotential on this center.
    5          6
                                   No pseudopotential on this center.
    6          8
                                   No pseudopotential on this center.
    7          6
                                   No pseudopotential on this center.
    8          1
                                   No pseudopotential on this center.
    9          1
                                   No pseudopotential on this center.
   10          1
                                   No pseudopotential on this center.
   11          6
                                   No pseudopotential on this center.
   12          1
                                   No pseudopotential on this center.
   13          1
                                   No pseudopotential on this center.
   14          1
                                   No pseudopotential on this center.
   15          7
                                   No pseudopotential on this center.
   16          8
                                   No pseudopotential on this center.
   17          8
                                   No pseudopotential on this center.
   18          7
                                   No pseudopotential on this center.
   19          6
                                   No pseudopotential on this center.
   20          6
                                   No pseudopotential on this center.
   21          6
                                   No pseudopotential on this center.
   22          8
                                   No pseudopotential on this center.
   23          6
                                   No pseudopotential on this center.
   24          1
                                   No pseudopotential on this center.
   25          1
                                   No pseudopotential on this center.
   26          1
                                   No pseudopotential on this center.
   27          6
                                   No pseudopotential on this center.
   28          1
                                   No pseudopotential on this center.
   29          1
                                   No pseudopotential on this center.
   30          1
                                   No pseudopotential on this center.
   31          7
                                   No pseudopotential on this center.
   32          8
                                   No pseudopotential on this center.
   33          8
                                   No pseudopotential on this center.
   34         17
                                   No pseudopotential on this center.
   35          1
                                   No pseudopotential on this center.
   36          8
                                   No pseudopotential on this center.
   37          1
                                   No pseudopotential on this center.
 ======================================================================================================
 There are   441 symmetry adapted cartesian basis functions of A   symmetry.
 There are   414 symmetry adapted basis functions of A   symmetry.
   414 basis functions,   725 primitive gaussians,   441 cartesian basis functions
    96 alpha electrons       96 beta electrons
       nuclear repulsion energy      2495.6222709224 Hartrees.
 NAtoms=   37 NActive=   37 NUniq=   37 SFac= 1.00D+00 NAtFMM=   60 NAOKFM=F Big=F
 Integral buffers will be    131072 words long.
 Raffenetti 2 integral format.
 Two-electron integral symmetry is turned on.
 One-electron integrals computed using PRISM.
   1 Symmetry operations used in ECPInt.
 ECPInt:  NShTT=   17766 NPrTT=   64971 LenC2=   15683 LenP2D=   39114.
 LDataN:  DoStor=T MaxTD1= 8 Len=  415
 Number of processors reduced to  29 by ecpmxn.
 NBasis=   414 RedAO= T EigKep=  5.49D-04  NBF=   414
 NBsUse=   414 1.00D-06 EigRej= -1.00D+00 NBFU=   414
 Defaulting to unpruned grid for atomic number  78.
 ExpMin= 4.90D-02 ExpMax= 1.04D+04 ExpMxC= 1.57D+03 IAcc=3 IRadAn=         5 AccDes= 0.00D+00
 Harris functional with IExCor=  402 and IRadAn=       5 diagonalized for initial guess.
 HarFok:  IExCor=  402 AccDes= 0.00D+00 IRadAn=         5 IDoV= 1 UseB2=F ITyADJ=14
 ICtDFT=  3500011 ScaDFX=  1.000000  1.000000  1.000000  1.000000
 Defaulting to unpruned grid for atomic number  78.
 FoFCou: FMM=F IPFlag=           0 FMFlag=      100000 FMFlg1=           0
         NFxFlg=           0 DoJE=T BraDBF=F KetDBF=T FulRan=T
         wScrn=  0.000000 ICntrl=       500 IOpCl=  0 I1Cent=   200000004 NGrid=           0
         NMat0=    1 NMatS0=      1 NMatT0=    0 NMatD0=    1 NMtDS0=    0 NMtDT0=    0
 Petite list used in FoFCou.
 Requested convergence on RMS density matrix=1.00D-08 within 128 cycles.
 Requested convergence on MAX density matrix=1.00D-06.
 Requested convergence on             energy=1.00D-06.
 No special actions if energy rises.
 Defaulting to unpruned grid for atomic number  78.
 Defaulting to unpruned grid for atomic number  78.
 Defaulting to unpruned grid for atomic number  78.
 Defaulting to unpruned grid for atomic number  78.
 Defaulting to unpruned grid for atomic number  78.
 Defaulting to unpruned grid for atomic number  78.
 Defaulting to unpruned grid for atomic number  78.
 Defaulting to unpruned grid for atomic number  78.
 Defaulting to unpruned grid for atomic number  78.
 Defaulting to unpruned grid for atomic number  78.
 Defaulting to unpruned grid for atomic number  78.
 Defaulting to unpruned grid for atomic number  78.
 Defaulting to unpruned grid for atomic number  78.
 Defaulting to unpruned grid for atomic number  78.
 Defaulting to unpruned grid for atomic number  78.
 Defaulting to unpruned grid for atomic number  78.
 Defaulting to unpruned grid for atomic number  78.
 Defaulting to unpruned grid for atomic number  78.
 Defaulting to unpruned grid for atomic number  78.
 Defaulting to unpruned grid for atomic number  78.
 Defaulting to unpruned grid for atomic number  78.
 Defaulting to unpruned grid for atomic number  78.
 Defaulting to unpruned grid for atomic number  78.
 Defaulting to unpruned grid for atomic number  78.
 Defaulting to unpruned grid for atomic number  78.
 Defaulting to unpruned grid for atomic number  78.
 Defaulting to unpruned grid for atomic number  78.
 Defaulting to unpruned grid for atomic number  78.
 Defaulting to unpruned grid for atomic number  78.
 Defaulting to unpruned grid for atomic number  78.
 Defaulting to unpruned grid for atomic number  78.
 Defaulting to unpruned grid for atomic number  78.
 Defaulting to unpruned grid for atomic number  78.
 Defaulting to unpruned grid for atomic number  78.
 Defaulting to unpruned grid for atomic number  78.
 Defaulting to unpruned grid for atomic number  78.
 Defaulting to unpruned grid for atomic number  78.
 Defaulting to unpruned grid for atomic number  78.
 Defaulting to unpruned grid for atomic number  78.
 Defaulting to unpruned grid for atomic number  78.
 Defaulting to unpruned grid for atomic number  78.
 Defaulting to unpruned grid for atomic number  78.
 Defaulting to unpruned grid for atomic number  78.
 Defaulting to unpruned grid for atomic number  78.
 Defaulting to unpruned grid for atomic number  78.
 Defaulting to unpruned grid for atomic number  78.
 Defaulting to unpruned grid for atomic number  78.
 Defaulting to unpruned grid for atomic number  78.
 EnCoef did     3 forward-backward iterations
 EnCoef did   100 forward-backward iterations
 EnCoef did     4 forward-backward iterations
 EnCoef did     5 forward-backward iterations
 Restarting incremental Fock formation.
 SCF Done:  E(RB3LYP) =  -1713.23379570     A.U. after   21 cycles
            NFock= 21  Conv=0.53D-08     -V/T= 2.0550

 **********************************************************************

            Population analysis using the SCF Density.

 **********************************************************************

 Orbital symmetries:
       Occupied  (A) (A) (A) (A) (A) (A) (A) (A) (A) (A) (A) (A)
                 (A) (A) (A) (A) (A) (A) (A) (A) (A) (A) (A) (A)
                 (A) (A) (A) (A) (A) (A) (A) (A) (A) (A) (A) (A)
                 (A) (A) (A) (A) (A) (A) (A) (A) (A) (A) (A) (A)
                 (A) (A) (A) (A) (A) (A) (A) (A) (A) (A) (A) (A)
                 (A) (A) (A) (A) (A) (A) (A) (A) (A) (A) (A) (A)
                 (A) (A) (A) (A) (A) (A) (A) (A) (A) (A) (A) (A)
                 (A) (A) (A) (A) (A) (A) (A) (A) (A) (A) (A) (A)
       Virtual   (A) (A) (A) (A) (A) (A) (A) (A) (A) (A) (A) (A)
                 (A) (A) (A) (A) (A) (A) (A) (A) (A) (A) (A) (A)
                 (A) (A) (A) (A) (A) (A) (A) (A) (A) (A) (A) (A)
                 (A) (A) (A) (A) (A) (A) (A) (A) (A) (A) (A) (A)
                 (A) (A) (A) (A) (A) (A) (A) (A) (A) (A) (A) (A)
                 (A) (A) (A) (A) (A) (A) (A) (A) (A) (A) (A) (A)
                 (A) (A) (A) (A) (A) (A) (A) (A) (A) (A) (A) (A)
                 (A) (A) (A) (A) (A) (A) (A) (A) (A) (A) (A) (A)
                 (A) (A) (A) (A) (A) (A) (A) (A) (A) (A) (A) (A)
                 (A) (A) (A) (A) (A) (A) (A) (A) (A) (A) (A) (A)
                 (A) (A) (A) (A) (A) (A) (A) (A) (A) (A) (A) (A)
                 (A) (A) (A) (A) (A) (A) (A) (A) (A) (A) (A) (A)
                 (A) (A) (A) (A) (A) (A) (A) (A) (A) (A) (A) (A)
                 (A) (A) (A) (A) (A) (A) (A) (A) (A) (A) (A) (A)
                 (A) (A) (A) (A) (A) (A) (A) (A) (A) (A) (A) (A)
                 (A) (A) (A) (A) (A) (A) (A) (A) (A) (A) (A) (A)
                 (A) (A) (A) (A) (A) (A) (A) (A) (A) (A) (A) (A)
                 (A) (A) (A) (A) (A) (A) (A) (A) (A) (A) (A) (A)
                 (A) (A) (A) (A) (A) (A) (A) (A) (A) (A) (A) (A)
                 (A) (A) (A) (A) (A) (A) (A) (A) (A) (A) (A) (A)
                 (A) (A) (A) (A) (A) (A) (A) (A) (A) (A) (A) (A)
                 (A) (A) (A) (A) (A) (A) (A) (A) (A) (A) (A) (A)
                 (A) (A) (A) (A) (A) (A) (A) (A) (A) (A) (A) (A)
                 (A) (A) (A) (A) (A) (A) (A) (A) (A) (A) (A) (A)
                 (A) (A) (A) (A) (A) (A) (A) (A) (A) (A) (A) (A)
                 (A) (A) (A) (A) (A) (A) (A) (A) (A) (A) (A) (A)
                 (A) (A) (A) (A) (A) (A)
 The electronic state is 1-A.
 Alpha  occ. eigenvalues -- -101.56893 -19.42638 -19.40742 -19.38605 -19.29936
 Alpha  occ. eigenvalues --  -19.29859 -19.28811 -19.28719 -14.70516 -14.69393
 Alpha  occ. eigenvalues --  -14.60198 -14.59651 -10.46164 -10.44618 -10.43801
 Alpha  occ. eigenvalues --  -10.42677 -10.41102 -10.39638 -10.35750 -10.35736
 Alpha  occ. eigenvalues --  -10.34889 -10.33995  -9.52083  -7.28858  -7.28082
 Alpha  occ. eigenvalues --   -7.28057  -4.10963  -2.36836  -2.36157  -2.32172
 Alpha  occ. eigenvalues --   -1.36202  -1.35272  -1.35073  -1.33313  -1.21732
 Alpha  occ. eigenvalues --   -1.18358  -1.17340  -1.08927  -1.07415  -1.02079
 Alpha  occ. eigenvalues --   -1.00521  -0.92326  -0.90820  -0.89668  -0.88377
 Alpha  occ. eigenvalues --   -0.87438  -0.86707  -0.85508  -0.78593  -0.77100
 Alpha  occ. eigenvalues --   -0.75211  -0.74261  -0.73995  -0.70302  -0.69331
 Alpha  occ. eigenvalues --   -0.68915  -0.68528  -0.67311  -0.67082  -0.66503
 Alpha  occ. eigenvalues --   -0.65794  -0.64089  -0.63903  -0.62690  -0.61561
 Alpha  occ. eigenvalues --   -0.60062  -0.59724  -0.59596  -0.59275  -0.58472
 Alpha  occ. eigenvalues --   -0.58084  -0.57897  -0.57422  -0.56293  -0.56166
 Alpha  occ. eigenvalues --   -0.55687  -0.54786  -0.54705  -0.53256  -0.51012
 Alpha  occ. eigenvalues --   -0.49007  -0.46758  -0.46402  -0.45604  -0.45064
 Alpha  occ. eigenvalues --   -0.44787  -0.44511  -0.44001  -0.43787  -0.43452
 Alpha  occ. eigenvalues --   -0.42959  -0.42024  -0.41908  -0.40736  -0.37374
 Alpha  occ. eigenvalues --   -0.36776
 Alpha virt. eigenvalues --   -0.22950  -0.21492  -0.20829  -0.20470  -0.19246
 Alpha virt. eigenvalues --   -0.15477  -0.12136  -0.10987  -0.09754  -0.09258
 Alpha virt. eigenvalues --   -0.08397  -0.07545  -0.06327  -0.05533  -0.04636
 Alpha virt. eigenvalues --   -0.04139  -0.03623  -0.02977  -0.02042  -0.00959
 Alpha virt. eigenvalues --   -0.00142  -0.00018   0.01082   0.01487   0.01732
 Alpha virt. eigenvalues --    0.02011   0.03230   0.03795   0.05659   0.06214
 Alpha virt. eigenvalues --    0.07053   0.07137   0.07962   0.08941   0.09756
 Alpha virt. eigenvalues --    0.10838   0.11905   0.12948   0.13987   0.15218
 Alpha virt. eigenvalues --    0.16632   0.17312   0.20206   0.20912   0.22099
 Alpha virt. eigenvalues --    0.23503   0.25225   0.25425   0.27256   0.27745
 Alpha virt. eigenvalues --    0.28969   0.29401   0.30125   0.30418   0.30923
 Alpha virt. eigenvalues --    0.31661   0.32163   0.32896   0.33374   0.34488
 Alpha virt. eigenvalues --    0.35315   0.36849   0.37435   0.38175   0.39469
 Alpha virt. eigenvalues --    0.40180   0.41213   0.41369   0.42497   0.42798
 Alpha virt. eigenvalues --    0.43502   0.44511   0.44944   0.45960   0.46825
 Alpha virt. eigenvalues --    0.47140   0.47969   0.49298   0.49642   0.50145
 Alpha virt. eigenvalues --    0.50483   0.50729   0.50940   0.51870   0.51914
 Alpha virt. eigenvalues --    0.52342   0.52720   0.53139   0.53858   0.54125
 Alpha virt. eigenvalues --    0.54319   0.54866   0.55736   0.56019   0.57315
 Alpha virt. eigenvalues --    0.58163   0.59062   0.59262   0.60914   0.62255
 Alpha virt. eigenvalues --    0.63554   0.65572   0.66201   0.68183   0.69894
 Alpha virt. eigenvalues --    0.70428   0.71437   0.72718   0.73476   0.74659
 Alpha virt. eigenvalues --    0.74953   0.75411   0.75994   0.76681   0.77792
 Alpha virt. eigenvalues --    0.78724   0.78955   0.79994   0.80350   0.80989
 Alpha virt. eigenvalues --    0.83002   0.83827   0.84096   0.85383   0.86972
 Alpha virt. eigenvalues --    0.87082   0.88509   0.89583   0.90157   0.90871
 Alpha virt. eigenvalues --    0.91208   0.91777   0.92368   0.93703   0.94595
 Alpha virt. eigenvalues --    0.94927   0.96518   0.96954   0.98639   0.99752
 Alpha virt. eigenvalues --    1.01224   1.01949   1.02466   1.02838   1.03595
 Alpha virt. eigenvalues --    1.05586   1.07631   1.08979   1.09431   1.10129
 Alpha virt. eigenvalues --    1.11173   1.15701   1.17376   1.18074   1.18577
 Alpha virt. eigenvalues --    1.19125   1.20717   1.21593   1.23401   1.23656
 Alpha virt. eigenvalues --    1.24481   1.25644   1.26499   1.26969   1.28802
 Alpha virt. eigenvalues --    1.31728   1.33060   1.33802   1.34743   1.35213
 Alpha virt. eigenvalues --    1.35948   1.36380   1.37046   1.37363   1.38395
 Alpha virt. eigenvalues --    1.38607   1.38773   1.41141   1.41792   1.42575
 Alpha virt. eigenvalues --    1.43004   1.44155   1.45260   1.46580   1.47249
 Alpha virt. eigenvalues --    1.49299   1.51167   1.54602   1.55598   1.57787
 Alpha virt. eigenvalues --    1.59435   1.60478   1.61363   1.62511   1.62975
 Alpha virt. eigenvalues --    1.63173   1.63750   1.63802   1.64383   1.64752
 Alpha virt. eigenvalues --    1.65504   1.65922   1.66742   1.66918   1.67477
 Alpha virt. eigenvalues --    1.69030   1.71081   1.71343   1.72702   1.73049
 Alpha virt. eigenvalues --    1.74852   1.75201   1.75508   1.78759   1.81772
 Alpha virt. eigenvalues --    1.83144   1.84366   1.85107   1.85795   1.86955
 Alpha virt. eigenvalues --    1.88748   1.89760   1.90623   1.91907   1.93044
 Alpha virt. eigenvalues --    1.96279   1.97337   1.99221   1.99783   2.04106
 Alpha virt. eigenvalues --    2.05842   2.06165   2.09562   2.10945   2.11592
 Alpha virt. eigenvalues --    2.13617   2.13854   2.15780   2.18005   2.18406
 Alpha virt. eigenvalues --    2.20095   2.20556   2.21107   2.22076   2.22603
 Alpha virt. eigenvalues --    2.24606   2.25739   2.26614   2.27303   2.27646
 Alpha virt. eigenvalues --    2.29321   2.30815   2.31927   2.33246   2.35194
 Alpha virt. eigenvalues --    2.35580   2.38938   2.41425   2.43689   2.47232
 Alpha virt. eigenvalues --    2.48266   2.50305   2.50943   2.54011   2.54867
 Alpha virt. eigenvalues --    2.55132   2.55530   2.55949   2.56385   2.57338
 Alpha virt. eigenvalues --    2.58098   2.60093   2.61856   2.63938   2.65311
 Alpha virt. eigenvalues --    2.66644   2.68617   2.70654   2.70683   2.72666
 Alpha virt. eigenvalues --    2.73817   2.76009   2.76869   2.77367   2.77609
 Alpha virt. eigenvalues --    2.78892   2.79429   2.80646   2.81906   2.82093
 Alpha virt. eigenvalues --    2.83222   2.87226   2.91794   2.92754   2.93402
 Alpha virt. eigenvalues --    2.93816   2.98861   3.00459   3.07144   3.08588
 Alpha virt. eigenvalues --    3.13479   3.13808   3.15035   3.15228   3.21851
 Alpha virt. eigenvalues --    3.23487   3.24542   3.33017   3.34140   3.52986
 Alpha virt. eigenvalues --    3.54298   3.58434   3.61470   3.63140   3.66892
 Alpha virt. eigenvalues --    3.68213  50.68305 279.97078
          Condensed to atoms (all electrons):
               1          2          3          4          5          6
     1  Pt  17.257714   0.055374  -0.063273  -0.003566   0.009536  -0.004673
     2  N    0.055374   6.719927   0.440915  -0.123293  -0.004366   0.168701
     3  C   -0.063273   0.440915   5.124808  -0.040416   0.221285  -0.106705
     4  C   -0.003566  -0.123293  -0.040416   5.107021   0.271073   0.340912
     5  C    0.009536  -0.004366   0.221285   0.271073   5.446091  -0.033023
     6  O   -0.004673   0.168701  -0.106705   0.340912  -0.033023   7.807181
     7  C   -0.000731   0.004574   0.008813   0.442626  -0.049862  -0.035231
     8  H    0.000343   0.000119  -0.000782  -0.010979   0.016304  -0.000961
     9  H   -0.000008  -0.000197   0.001204   0.009821  -0.013697   0.001943
    10  H    0.000146   0.000055   0.000057   0.001644  -0.007435   0.000214
    11  C   -0.000518   0.001209   0.000652   0.000449  -0.000664  -0.000769
    12  H   -0.001761   0.000198   0.000034  -0.000012  -0.000004   0.000015
    13  H   -0.000092  -0.000490   0.001735   0.000489  -0.000126  -0.000065
    14  H   -0.018173   0.001437   0.000689   0.000457  -0.000691   0.002767
    15  N   -0.000130   0.003431  -0.027863  -0.034406   0.292352   0.002201
    16  O    0.000062   0.000091  -0.027460   0.003414  -0.053311  -0.000022
    17  O    0.000073   0.000009   0.002723  -0.024929  -0.059308   0.000005
    18  N    0.125716  -0.005455  -0.000966   0.000023  -0.000083   0.000081
    19  C   -0.076925  -0.002802   0.004916  -0.000062  -0.000162  -0.000273
    20  C   -0.005844   0.000008   0.000048  -0.000001   0.000011   0.000000
    21  C    0.015586  -0.000306  -0.000571   0.000011  -0.000030  -0.000007
    22  O   -0.009453   0.000030  -0.000067   0.000000  -0.000006  -0.000000
    23  C   -0.000775  -0.000000  -0.000000   0.000000   0.000000   0.000000
    24  H    0.000050  -0.000000   0.000000  -0.000000   0.000000  -0.000000
    25  H    0.000042   0.000000  -0.000000   0.000000  -0.000000   0.000000
    26  H    0.000348   0.000000   0.000001   0.000000  -0.000000  -0.000000
    27  C    0.004424  -0.039522   0.436232   0.012802  -0.042939   0.003273
    28  H    0.001214   0.001183   0.007736   0.000202  -0.006519  -0.000087
    29  H   -0.019201  -0.010234  -0.005759  -0.000315   0.013661  -0.000236
    30  H   -0.001170   0.002301   0.012370   0.000657  -0.011715  -0.000061
    31  N    0.000588  -0.000000  -0.000003   0.000000  -0.000000  -0.000000
    32  O    0.000025   0.000000  -0.000002  -0.000000   0.000000  -0.000000
    33  O    0.000040   0.000000   0.000000   0.000000  -0.000000  -0.000000
    34  Cl   0.320118  -0.002165  -0.000050  -0.000002   0.000000   0.000009
    35  H   -0.032597  -0.000065   0.000109   0.000051  -0.000814   0.003234
    36  O    0.163468  -0.007151  -0.001067   0.000295  -0.000127  -0.001282
    37  H   -0.030412  -0.001486  -0.000188  -0.000008  -0.000002   0.001713
               7          8          9         10         11         12
     1  Pt  -0.000731   0.000343  -0.000008   0.000146  -0.000518  -0.001761
     2  N    0.004574   0.000119  -0.000197   0.000055   0.001209   0.000198
     3  C    0.008813  -0.000782   0.001204   0.000057   0.000652   0.000034
     4  C    0.442626  -0.010979   0.009821   0.001644   0.000449  -0.000012
     5  C   -0.049862   0.016304  -0.013697  -0.007435  -0.000664  -0.000004
     6  O   -0.035231  -0.000961   0.001943   0.000214  -0.000769   0.000015
     7  C    4.397639   0.358128   0.375260   0.372861   0.000011  -0.000000
     8  H    0.358128   0.603791  -0.013818  -0.013087  -0.000004   0.000000
     9  H    0.375260  -0.013818   0.548237  -0.010550  -0.000000   0.000000
    10  H    0.372861  -0.013087  -0.010550   0.566194  -0.000000  -0.000000
    11  C    0.000011  -0.000004  -0.000000  -0.000000   4.413969   0.360611
    12  H   -0.000000   0.000000   0.000000  -0.000000   0.360611   0.563200
    13  H   -0.000002  -0.000003  -0.000002   0.000000   0.365544  -0.010756
    14  H   -0.000018   0.000014  -0.000001  -0.000001   0.361436  -0.011077
    15  N   -0.005747   0.000059  -0.000854   0.000392  -0.000002   0.000000
    16  O    0.000196   0.000007  -0.000027  -0.000002   0.000000   0.000000
    17  O    0.014073   0.000685   0.009409   0.001558   0.000000   0.000000
    18  N   -0.000000   0.000000  -0.000000   0.000000  -0.039583   0.002523
    19  C    0.000001   0.000000   0.000000  -0.000000   0.439813   0.014153
    20  C   -0.000000   0.000000   0.000000  -0.000000   0.013160   0.000758
    21  C    0.000000  -0.000000  -0.000000   0.000000  -0.044480  -0.009740
    22  O    0.000000  -0.000000  -0.000000   0.000000   0.003143  -0.000091
    23  C    0.000000   0.000000  -0.000000  -0.000000  -0.000266   0.000008
    24  H    0.000000  -0.000000   0.000000  -0.000000   0.000008   0.000002
    25  H   -0.000000  -0.000000  -0.000000   0.000000   0.000010  -0.000005
    26  H    0.000000   0.000000  -0.000000   0.000000  -0.000002  -0.000000
    27  C   -0.000265  -0.000002   0.000009   0.000007  -0.000410   0.000014
    28  H    0.000008  -0.000000  -0.000004   0.000001  -0.000077  -0.000008
    29  H   -0.000001  -0.000001  -0.000000  -0.000000   0.000198  -0.000006
    30  H    0.000006  -0.000000   0.000003  -0.000004   0.000001   0.000000
    31  N   -0.000000   0.000000  -0.000000   0.000000  -0.007848  -0.000554
    32  O    0.000000   0.000000  -0.000000   0.000000   0.015192   0.008102
    33  O   -0.000000   0.000000   0.000000  -0.000000   0.000197  -0.000035
    34  Cl   0.000000  -0.000000  -0.000000  -0.000000  -0.000049  -0.000005
    35  H    0.000055  -0.000015  -0.000002   0.000022  -0.000001  -0.000000
    36  O    0.000008  -0.000007  -0.000000  -0.000001   0.000020  -0.000000
    37  H    0.000005   0.000025  -0.000001   0.000001   0.000000   0.000000
              13         14         15         16         17         18
     1  Pt  -0.000092  -0.018173  -0.000130   0.000062   0.000073   0.125716
     2  N   -0.000490   0.001437   0.003431   0.000091   0.000009  -0.005455
     3  C    0.001735   0.000689  -0.027863  -0.027460   0.002723  -0.000966
     4  C    0.000489   0.000457  -0.034406   0.003414  -0.024929   0.000023
     5  C   -0.000126  -0.000691   0.292352  -0.053311  -0.059308  -0.000083
     6  O   -0.000065   0.002767   0.002201  -0.000022   0.000005   0.000081
     7  C   -0.000002  -0.000018  -0.005747   0.000196   0.014073  -0.000000
     8  H   -0.000003   0.000014   0.000059   0.000007   0.000685   0.000000
     9  H   -0.000002  -0.000001  -0.000854  -0.000027   0.009409  -0.000000
    10  H    0.000000  -0.000001   0.000392  -0.000002   0.001558   0.000000
    11  C    0.365544   0.361436  -0.000002   0.000000   0.000000  -0.039583
    12  H   -0.010756  -0.011077   0.000000   0.000000   0.000000   0.002523
    13  H    0.598235  -0.016983  -0.000010  -0.000003  -0.000000   0.000569
    14  H   -0.016983   0.620894  -0.000004   0.000000   0.000000  -0.007442
    15  N   -0.000010  -0.000004   5.944263   0.283829   0.294577  -0.000000
    16  O   -0.000003   0.000000   0.283829   8.072973  -0.090863   0.000000
    17  O   -0.000000   0.000000   0.294577  -0.090863   8.067515   0.000000
    18  N    0.000569  -0.007442  -0.000000   0.000000   0.000000   6.579333
    19  C    0.004205  -0.007639   0.000001  -0.000000   0.000000   0.421239
    20  C    0.000147  -0.000228   0.000000   0.000000   0.000000  -0.120643
    21  C   -0.007459   0.012727  -0.000000  -0.000000  -0.000000   0.002309
    22  O   -0.000053  -0.000176  -0.000000  -0.000000  -0.000000   0.199140
    23  C    0.000006   0.000001  -0.000000   0.000000   0.000000   0.004732
    24  H   -0.000004  -0.000000   0.000000  -0.000000  -0.000000  -0.000102
    25  H    0.000001  -0.000000   0.000000   0.000000   0.000000  -0.000115
    26  H   -0.000000  -0.000001  -0.000000  -0.000000   0.000000   0.000130
    27  C   -0.000450   0.000065  -0.007760   0.015648   0.000208   0.001196
    28  H    0.000093   0.000013  -0.000048   0.004095   0.000004  -0.000577
    29  H    0.000100   0.000118   0.000066   0.000880   0.000006  -0.000274
    30  H   -0.000004  -0.000001   0.000057   0.006620  -0.000072   0.000109
    31  N    0.000202   0.000028  -0.000000   0.000000  -0.000000   0.003463
    32  O    0.003408   0.000875   0.000000  -0.000000  -0.000000   0.000093
    33  O   -0.000005   0.000006  -0.000000  -0.000000  -0.000000   0.000007
    34  Cl  -0.000002  -0.000461   0.000000  -0.000000  -0.000000  -0.003153
    35  H    0.000001  -0.000047  -0.000000   0.000000   0.000000   0.000194
    36  O   -0.000001  -0.000297  -0.000000  -0.000000  -0.000000  -0.001338
    37  H   -0.000000  -0.000064  -0.000000   0.000000   0.000000   0.000215
              19         20         21         22         23         24
     1  Pt  -0.076925  -0.005844   0.015586  -0.009453  -0.000775   0.000050
     2  N   -0.002802   0.000008  -0.000306   0.000030  -0.000000  -0.000000
     3  C    0.004916   0.000048  -0.000571  -0.000067  -0.000000   0.000000
     4  C   -0.000062  -0.000001   0.000011   0.000000   0.000000  -0.000000
     5  C   -0.000162   0.000011  -0.000030  -0.000006   0.000000   0.000000
     6  O   -0.000273   0.000000  -0.000007  -0.000000   0.000000  -0.000000
     7  C    0.000001  -0.000000   0.000000   0.000000   0.000000   0.000000
     8  H    0.000000   0.000000  -0.000000  -0.000000   0.000000  -0.000000
     9  H    0.000000   0.000000  -0.000000  -0.000000  -0.000000   0.000000
    10  H   -0.000000  -0.000000   0.000000   0.000000  -0.000000  -0.000000
    11  C    0.439813   0.013160  -0.044480   0.003143  -0.000266   0.000008
    12  H    0.014153   0.000758  -0.009740  -0.000091   0.000008   0.000002
    13  H    0.004205   0.000147  -0.007459  -0.000053   0.000006  -0.000004
    14  H   -0.007639  -0.000228   0.012727  -0.000176   0.000001  -0.000000
    15  N    0.000001   0.000000  -0.000000  -0.000000  -0.000000   0.000000
    16  O   -0.000000   0.000000  -0.000000  -0.000000   0.000000  -0.000000
    17  O    0.000000   0.000000  -0.000000  -0.000000   0.000000  -0.000000
    18  N    0.421239  -0.120643   0.002309   0.199140   0.004732  -0.000102
    19  C    5.149977  -0.038823   0.221428  -0.106992   0.008620   0.000796
    20  C   -0.038823   5.063766   0.275675   0.345723   0.450885   0.005351
    21  C    0.221428   0.275675   5.435878  -0.026701  -0.054805  -0.012221
    22  O   -0.106992   0.345723  -0.026701   7.739601  -0.035669   0.001373
    23  C    0.008620   0.450885  -0.054805  -0.035669   4.395678   0.373942
    24  H    0.000796   0.005351  -0.012221   0.001373   0.373942   0.570071
    25  H    0.000500   0.005210  -0.008156   0.000984   0.372786  -0.012120
    26  H   -0.000711  -0.007808   0.016120  -0.000557   0.356983  -0.014292
    27  C    0.000595   0.000829  -0.000065  -0.002408   0.000035   0.000009
    28  H    0.000464   0.000418   0.000608  -0.000114  -0.000016  -0.000005
    29  H    0.002176   0.002142  -0.003812   0.008439  -0.000078  -0.000040
    30  H    0.000082  -0.000025  -0.000007   0.000021   0.000000   0.000000
    31  N   -0.029778  -0.032390   0.294522   0.002208  -0.006173  -0.000092
    32  O   -0.027046   0.003118  -0.055645  -0.000021   0.000188  -0.000025
    33  O    0.003148  -0.027542  -0.057869   0.000005   0.015821   0.005064
    34  Cl  -0.002075  -0.000121   0.000093  -0.001764   0.000006  -0.000000
    35  H   -0.000035  -0.000000   0.000002  -0.000002  -0.000000  -0.000000
    36  O   -0.000023   0.000000  -0.000001   0.000005   0.000000  -0.000000
    37  H   -0.000047  -0.000000   0.000001   0.000002  -0.000000   0.000000
              25         26         27         28         29         30
     1  Pt   0.000042   0.000348   0.004424   0.001214  -0.019201  -0.001170
     2  N    0.000000   0.000000  -0.039522   0.001183  -0.010234   0.002301
     3  C   -0.000000   0.000001   0.436232   0.007736  -0.005759   0.012370
     4  C    0.000000   0.000000   0.012802   0.000202  -0.000315   0.000657
     5  C   -0.000000  -0.000000  -0.042939  -0.006519   0.013661  -0.011715
     6  O    0.000000  -0.000000   0.003273  -0.000087  -0.000236  -0.000061
     7  C   -0.000000   0.000000  -0.000265   0.000008  -0.000001   0.000006
     8  H   -0.000000   0.000000  -0.000002  -0.000000  -0.000001  -0.000000
     9  H   -0.000000  -0.000000   0.000009  -0.000004  -0.000000   0.000003
    10  H    0.000000   0.000000   0.000007   0.000001  -0.000000  -0.000004
    11  C    0.000010  -0.000002  -0.000410  -0.000077   0.000198   0.000001
    12  H   -0.000005  -0.000000   0.000014  -0.000008  -0.000006   0.000000
    13  H    0.000001  -0.000000  -0.000450   0.000093   0.000100  -0.000004
    14  H   -0.000000  -0.000001   0.000065   0.000013   0.000118  -0.000001
    15  N    0.000000  -0.000000  -0.007760  -0.000048   0.000066   0.000057
    16  O    0.000000  -0.000000   0.015648   0.004095   0.000880   0.006620
    17  O    0.000000   0.000000   0.000208   0.000004   0.000006  -0.000072
    18  N   -0.000115   0.000130   0.001196  -0.000577  -0.000274   0.000109
    19  C    0.000500  -0.000711   0.000595   0.000464   0.002176   0.000082
    20  C    0.005210  -0.007808   0.000829   0.000418   0.002142  -0.000025
    21  C   -0.008156   0.016120  -0.000065   0.000608  -0.003812  -0.000007
    22  O    0.000984  -0.000557  -0.002408  -0.000114   0.008439   0.000021
    23  C    0.372786   0.356983   0.000035  -0.000016  -0.000078   0.000000
    24  H   -0.012120  -0.014292   0.000009  -0.000005  -0.000040   0.000000
    25  H    0.554951  -0.011706  -0.000001   0.000001   0.000006  -0.000000
    26  H   -0.011706   0.594281  -0.000011  -0.000003   0.000033   0.000000
    27  C   -0.000001  -0.000011   4.420140   0.364613   0.356822   0.362993
    28  H    0.000001  -0.000003   0.364613   0.578396  -0.016798  -0.010094
    29  H    0.000006   0.000033   0.356822  -0.016798   0.620629  -0.012524
    30  H   -0.000000   0.000000   0.362993  -0.010094  -0.012524   0.569499
    31  N   -0.000191   0.000065  -0.000007  -0.000007  -0.000039   0.000000
    32  O   -0.000006   0.000006  -0.000001  -0.000001   0.000002   0.000000
    33  O    0.004228   0.000696  -0.000000  -0.000002   0.000001   0.000000
    34  Cl   0.000000  -0.000017   0.000018  -0.000000  -0.000394   0.000000
    35  H    0.000000  -0.000000  -0.000024   0.000001  -0.000137  -0.000020
    36  O   -0.000000   0.000000  -0.000009  -0.000001  -0.000125  -0.000002
    37  H   -0.000000   0.000000   0.000008  -0.000000  -0.000017  -0.000000
              31         32         33         34         35         36
     1  Pt   0.000588   0.000025   0.000040   0.320118  -0.032597   0.163468
     2  N   -0.000000   0.000000   0.000000  -0.002165  -0.000065  -0.007151
     3  C   -0.000003  -0.000002   0.000000  -0.000050   0.000109  -0.001067
     4  C    0.000000  -0.000000   0.000000  -0.000002   0.000051   0.000295
     5  C   -0.000000   0.000000  -0.000000   0.000000  -0.000814  -0.000127
     6  O   -0.000000  -0.000000  -0.000000   0.000009   0.003234  -0.001282
     7  C   -0.000000   0.000000  -0.000000   0.000000   0.000055   0.000008
     8  H    0.000000   0.000000   0.000000  -0.000000  -0.000015  -0.000007
     9  H   -0.000000  -0.000000   0.000000  -0.000000  -0.000002  -0.000000
    10  H    0.000000   0.000000  -0.000000  -0.000000   0.000022  -0.000001
    11  C   -0.007848   0.015192   0.000197  -0.000049  -0.000001   0.000020
    12  H   -0.000554   0.008102  -0.000035  -0.000005  -0.000000  -0.000000
    13  H    0.000202   0.003408  -0.000005  -0.000002   0.000001  -0.000001
    14  H    0.000028   0.000875   0.000006  -0.000461  -0.000047  -0.000297
    15  N   -0.000000   0.000000  -0.000000   0.000000  -0.000000  -0.000000
    16  O    0.000000  -0.000000  -0.000000  -0.000000   0.000000  -0.000000
    17  O   -0.000000  -0.000000  -0.000000  -0.000000   0.000000  -0.000000
    18  N    0.003463   0.000093   0.000007  -0.003153   0.000194  -0.001338
    19  C   -0.029778  -0.027046   0.003148  -0.002075  -0.000035  -0.000023
    20  C   -0.032390   0.003118  -0.027542  -0.000121  -0.000000   0.000000
    21  C    0.294522  -0.055645  -0.057869   0.000093   0.000002  -0.000001
    22  O    0.002208  -0.000021   0.000005  -0.001764  -0.000002   0.000005
    23  C   -0.006173   0.000188   0.015821   0.000006  -0.000000   0.000000
    24  H   -0.000092  -0.000025   0.005064  -0.000000  -0.000000  -0.000000
    25  H   -0.000191  -0.000006   0.004228   0.000000   0.000000  -0.000000
    26  H    0.000065   0.000006   0.000696  -0.000017  -0.000000   0.000000
    27  C   -0.000007  -0.000001  -0.000000   0.000018  -0.000024  -0.000009
    28  H   -0.000007  -0.000001  -0.000002  -0.000000   0.000001  -0.000001
    29  H   -0.000039   0.000002   0.000001  -0.000394  -0.000137  -0.000125
    30  H    0.000000   0.000000   0.000000   0.000000  -0.000020  -0.000002
    31  N    5.938888   0.286841   0.295281   0.000000   0.000000   0.000000
    32  O    0.286841   8.078144  -0.090385  -0.000000   0.000000  -0.000000
    33  O    0.295281  -0.090385   8.068926  -0.000000   0.000000  -0.000000
    34  Cl   0.000000  -0.000000  -0.000000  16.893018  -0.000372  -0.002887
    35  H    0.000000   0.000000   0.000000  -0.000372   0.460209   0.298035
    36  O    0.000000  -0.000000  -0.000000  -0.002887   0.298035   7.441150
    37  H   -0.000000   0.000000   0.000000  -0.001679  -0.007213   0.318826
              37
     1  Pt  -0.030412
     2  N   -0.001486
     3  C   -0.000188
     4  C   -0.000008
     5  C   -0.000002
     6  O    0.001713
     7  C    0.000005
     8  H    0.000025
     9  H   -0.000001
    10  H    0.000001
    11  C    0.000000
    12  H    0.000000
    13  H   -0.000000
    14  H   -0.000064
    15  N   -0.000000
    16  O    0.000000
    17  O    0.000000
    18  N    0.000215
    19  C   -0.000047
    20  C   -0.000000
    21  C    0.000001
    22  O    0.000002
    23  C   -0.000000
    24  H    0.000000
    25  H   -0.000000
    26  H    0.000000
    27  C    0.000008
    28  H   -0.000000
    29  H   -0.000017
    30  H   -0.000000
    31  N   -0.000000
    32  O    0.000000
    33  O    0.000000
    34  Cl  -0.001679
    35  H   -0.007213
    36  O    0.318826
    37  H    0.465297
 Mulliken charges:
               1
     1  Pt   0.314434
     2  N   -0.202026
     3  C    0.010843
     4  C    0.046044
     5  C    0.014569
     6  O   -0.148852
     7  C    0.117593
     8  H    0.060184
     9  H    0.093275
    10  H    0.087930
    11  C    0.119049
    12  H    0.084436
    13  H    0.061776
    14  H    0.061778
    15  N    0.255597
    16  O   -0.216126
    17  O   -0.215671
    18  N   -0.161339
    19  C    0.021280
    20  C    0.066176
    21  C    0.006916
    22  O   -0.116603
    23  C    0.118091
    24  H    0.082235
    25  H    0.093581
    26  H    0.066445
    27  C    0.113934
    28  H    0.075309
    29  H    0.064713
    30  H    0.080980
    31  N    0.254995
    32  O   -0.222864
    33  O   -0.217583
    34  Cl  -0.198067
    35  H    0.279433
    36  O   -0.207490
    37  H    0.255026
 Sum of Mulliken charges =   1.00000
 Mulliken charges with hydrogens summed into heavy atoms:
               1
     1  Pt   0.314434
     2  N   -0.202026
     3  C    0.010843
     4  C    0.046044
     5  C    0.014569
     6  O   -0.148852
     7  C    0.358983
    11  C    0.327039
    15  N    0.255597
    16  O   -0.216126
    17  O   -0.215671
    18  N   -0.161339
    19  C    0.021280
    20  C    0.066176
    21  C    0.006916
    22  O   -0.116603
    23  C    0.360351
    27  C    0.334935
    31  N    0.254995
    32  O   -0.222864
    33  O   -0.217583
    34  Cl  -0.198067
    36  O    0.326969
 Electronic spatial extent (au):  <R**2>=           9330.9916
 Charge=              1.0000 electrons
 Dipole moment (field-independent basis, Debye):
    X=             -5.7192    Y=             -0.6094    Z=              0.3940  Tot=              5.7651
 Quadrupole moment (field-independent basis, Debye-Ang):
   XX=           -110.9747   YY=           -163.5915   ZZ=           -139.3790
   XY=             21.3293   XZ=            -19.7498   YZ=             -4.7394
 Traceless Quadrupole moment (field-independent basis, Debye-Ang):
   XX=             27.0070   YY=            -25.6098   ZZ=             -1.3972
   XY=             21.3293   XZ=            -19.7498   YZ=             -4.7394
 Octapole moment (field-independent basis, Debye-Ang**2):
  XXX=            -14.5230  YYY=           -233.9153  ZZZ=             -2.5058  XYY=            -56.7392
  XXY=           -128.5777  XXZ=              7.0596  XZZ=             -1.1559  YZZ=            -55.0736
  YYZ=              4.1030  XYZ=            -38.1397
 Hexadecapole moment (field-independent basis, Debye-Ang**3):
 XXXX=          -6093.9703 YYYY=          -3951.0564 ZZZZ=          -1098.8224 XXXY=            215.5103
 XXXZ=           -398.2258 YYYX=             77.5865 YYYZ=            -68.5219 ZZZX=            -40.6006
 ZZZY=            -11.2516 XXYY=          -1966.1721 XXZZ=          -1146.6417 YYZZ=           -844.9346
 XXYZ=              1.1605 YYXZ=           -136.2450 ZZXY=             30.8454
 N-N= 2.495622270922D+03 E-N=-8.956109607172D+03  KE= 1.623919712244D+03
   1 Symmetry operations used in ECPInt.
 ECPInt:  NShTT=   17766 NPrTT=   64971 LenC2=   15683 LenP2D=   39114.
 LDataN:  DoStor=T MaxTD1= 9 Len=  602
 Number of processors reduced to  32 by ecpmxn.
 Calling FoFJK, ICntrl=      2127 FMM=F ISym2X=0 I1Cent= 0 IOpClX= 0 NMat=1 NMatS=1 NMatT=0.
 Defaulting to unpruned grid for atomic number  78.
 Defaulting to unpruned grid for atomic number  78.
 Defaulting to unpruned grid for atomic number  78.
 Defaulting to unpruned grid for atomic number  78.
 Defaulting to unpruned grid for atomic number  78.
 Defaulting to unpruned grid for atomic number  78.
 Defaulting to unpruned grid for atomic number  78.
 Defaulting to unpruned grid for atomic number  78.
 Defaulting to unpruned grid for atomic number  78.
 Defaulting to unpruned grid for atomic number  78.
 Defaulting to unpruned grid for atomic number  78.
 Defaulting to unpruned grid for atomic number  78.
 Defaulting to unpruned grid for atomic number  78.
 Defaulting to unpruned grid for atomic number  78.
 Defaulting to unpruned grid for atomic number  78.
[...]
    12  H    0.000000  -0.000000  -0.000000   0.000000   0.365336   0.564780
    13  H   -0.000000  -0.000000  -0.000000   0.000000   0.362988  -0.011105
    14  H    0.000001  -0.000003  -0.000000   0.000000   0.360714  -0.012200
    15  N   -0.005795   0.000053  -0.000123  -0.000154  -0.000000  -0.000000
    16  O    0.000180   0.000006  -0.000014  -0.000017   0.000000   0.000000
    17  O    0.015597   0.000701   0.004731   0.004534  -0.000000   0.000000
    18  N    0.000003  -0.000001  -0.000000  -0.000000  -0.035947   0.000192
    19  C    0.000001   0.000000  -0.000000  -0.000000   0.445143   0.009928
    20  C   -0.000000  -0.000000  -0.000000   0.000000   0.012857   0.000221
    21  C   -0.000000   0.000000   0.000000  -0.000000  -0.048260  -0.006007
    22  O    0.000000  -0.000000   0.000000  -0.000000   0.002825  -0.000063
    23  C    0.000000  -0.000000   0.000000  -0.000000  -0.000257   0.000007
    24  H    0.000000  -0.000000   0.000000  -0.000000   0.000011   0.000001
    25  H   -0.000000   0.000000  -0.000000   0.000000   0.000008  -0.000003
    26  H    0.000000  -0.000000   0.000000   0.000000  -0.000002  -0.000000
    27  C   -0.000262  -0.000002   0.000010   0.000009  -0.000000   0.000000
    28  H    0.000007  -0.000000  -0.000005   0.000002  -0.000000  -0.000000
    29  H    0.000001  -0.000001  -0.000000  -0.000000   0.000002   0.000000
    30  H    0.000008  -0.000000   0.000002  -0.000004   0.000000   0.000000
    31  N   -0.000000   0.000000   0.000000  -0.000000  -0.007583   0.000094
    32  O    0.000000  -0.000000   0.000000  -0.000000   0.013119   0.002763
    33  O    0.000000  -0.000000   0.000000   0.000000   0.000162  -0.000014
    34  Cl   0.000000   0.000000  -0.000000  -0.000000   0.003402   0.001260
    35  H    0.000000  -0.000001  -0.000000   0.000000   0.000005  -0.000000
    36  O   -0.000000  -0.000000   0.000000  -0.000000   0.000018  -0.000000
    37  H   -0.000000   0.000000   0.000000  -0.000000  -0.000011  -0.000002
              13         14         15         16         17         18
     1  Pt   0.000582  -0.003065  -0.000084   0.000046   0.000070   0.131125
     2  N   -0.000002  -0.000131   0.003055   0.000094   0.000006  -0.006608
     3  C    0.000000  -0.000028  -0.027773  -0.026089   0.003253   0.000387
     4  C   -0.000001  -0.000008  -0.030946   0.003314  -0.027974   0.000238
     5  C    0.000000   0.000001   0.295853  -0.060310  -0.062538  -0.000224
     6  O   -0.000004  -0.000260   0.002037  -0.000022  -0.000000  -0.000307
     7  C   -0.000000   0.000001  -0.005795   0.000180   0.015597   0.000003
     8  H   -0.000000  -0.000003   0.000053   0.000006   0.000701  -0.000001
     9  H   -0.000000  -0.000000  -0.000123  -0.000014   0.004731  -0.000000
    10  H    0.000000   0.000000  -0.000154  -0.000017   0.004534  -0.000000
    11  C    0.362988   0.360714  -0.000000   0.000000  -0.000000  -0.035947
    12  H   -0.011105  -0.012200  -0.000000   0.000000   0.000000   0.000192
    13  H    0.587767  -0.017114   0.000000  -0.000000  -0.000000   0.002821
    14  H   -0.017114   0.606270   0.000000  -0.000000  -0.000000  -0.008029
    15  N    0.000000   0.000000   5.928291   0.291108   0.297528  -0.000000
    16  O   -0.000000  -0.000000   0.291108   8.067372  -0.086047   0.000000
    17  O   -0.000000  -0.000000   0.297528  -0.086047   8.066470   0.000000
    18  N    0.002821  -0.008029  -0.000000   0.000000   0.000000   6.570455
    19  C    0.008999  -0.004063   0.000000  -0.000000  -0.000000   0.428953
    20  C    0.000623  -0.000308  -0.000000  -0.000000  -0.000000  -0.120455
    21  C   -0.012790   0.013891   0.000000   0.000000   0.000000   0.001372
    22  O   -0.000083  -0.000143  -0.000000  -0.000000   0.000000   0.192931
    23  C    0.000009   0.000001   0.000000   0.000000  -0.000000   0.004681
    24  H   -0.000006  -0.000000   0.000000   0.000000   0.000000  -0.000112
    25  H    0.000002  -0.000000  -0.000000  -0.000000   0.000000  -0.000086
    26  H   -0.000000  -0.000001   0.000000  -0.000000  -0.000000   0.000123
    27  C   -0.000000   0.000001  -0.007419   0.014273   0.000172   0.000031
    28  H    0.000000  -0.000000  -0.000266   0.006641  -0.000024  -0.000007
    29  H    0.000000  -0.000004   0.000040   0.000845   0.000005   0.000061
    30  H   -0.000000  -0.000000  -0.000038   0.004156  -0.000018   0.000001
    31  N   -0.000494   0.000038   0.000000   0.000000   0.000000   0.002965
    32  O    0.008556   0.000829   0.000000  -0.000000  -0.000000   0.000099
    33  O   -0.000019   0.000006  -0.000000  -0.000000   0.000000   0.000008
    34  Cl   0.000171  -0.002453   0.000000  -0.000000  -0.000000  -0.002669
    35  H    0.000000  -0.000040   0.000000  -0.000000  -0.000000   0.000167
    36  O    0.000000  -0.000236   0.000000  -0.000000   0.000000  -0.001224
    37  H   -0.000001   0.000003  -0.000000   0.000000   0.000000   0.000267
              19         20         21         22         23         24
     1  Pt  -0.043131  -0.003180   0.004438  -0.002600  -0.000827   0.000088
     2  N   -0.000136   0.000191  -0.000136  -0.000718   0.000005  -0.000000
     3  C   -0.000067   0.000106  -0.000041   0.000932  -0.000000  -0.000000
     4  C    0.000016   0.000015  -0.000006   0.000013  -0.000000  -0.000000
     5  C   -0.000007  -0.000003   0.000003  -0.000146   0.000000   0.000000
     6  O    0.000032  -0.000021   0.000003  -0.000021   0.000000   0.000000
     7  C    0.000001  -0.000000  -0.000000   0.000000   0.000000   0.000000
     8  H    0.000000  -0.000000   0.000000  -0.000000  -0.000000  -0.000000
     9  H   -0.000000  -0.000000   0.000000   0.000000   0.000000   0.000000
    10  H   -0.000000   0.000000  -0.000000  -0.000000  -0.000000  -0.000000
    11  C    0.445143   0.012857  -0.048260   0.002825  -0.000257   0.000011
    12  H    0.009928   0.000221  -0.006007  -0.000063   0.000007   0.000001
    13  H    0.008999   0.000623  -0.012790  -0.000083   0.000009  -0.000006
    14  H   -0.004063  -0.000308   0.013891  -0.000143   0.000001  -0.000000
    15  N    0.000000  -0.000000   0.000000  -0.000000   0.000000   0.000000
    16  O   -0.000000  -0.000000   0.000000  -0.000000   0.000000   0.000000
    17  O   -0.000000  -0.000000   0.000000   0.000000  -0.000000   0.000000
    18  N    0.428953  -0.120455   0.001372   0.192931   0.004681  -0.000112
    19  C    5.071897  -0.043051   0.234326  -0.104588   0.008094   0.000597
    20  C   -0.043051   5.055861   0.292054   0.343482   0.445498   0.005768
    21  C    0.234326   0.292054   5.424866  -0.028533  -0.050686  -0.010896
    22  O   -0.104588   0.343482  -0.028533   7.770572  -0.035629   0.001311
    23  C    0.008094   0.445498  -0.050686  -0.035629   4.397696   0.373376
    24  H    0.000597   0.005768  -0.010896   0.001311   0.373376   0.567565
    25  H    0.000606   0.005080  -0.009521   0.001105   0.374613  -0.012183
    26  H   -0.000749  -0.010094   0.016112  -0.000697   0.356654  -0.014678
    27  C    0.000017  -0.000009   0.000002   0.000218  -0.000004  -0.000000
    28  H   -0.000003  -0.000005   0.000002  -0.000005  -0.000001  -0.000000
    29  H   -0.000052   0.000021  -0.000003  -0.000369   0.000002  -0.000000
    30  H    0.000000   0.000000  -0.000000   0.000003   0.000000  -0.000000
    31  N   -0.029031  -0.030913   0.298095   0.002034  -0.006036  -0.000162
    32  O   -0.025286   0.003172  -0.061260  -0.000021   0.000181  -0.000013
    33  O    0.003213  -0.028172  -0.062978   0.000000   0.015682   0.005247
    34  Cl   0.001563   0.000117  -0.001097  -0.000291   0.000000   0.000000
    35  H   -0.000024  -0.000000   0.000000   0.000001  -0.000000  -0.000000
    36  O   -0.000002   0.000000  -0.000001   0.000005   0.000000  -0.000000
    37  H   -0.000048   0.000000   0.000004   0.000000  -0.000000   0.000000
              25         26         27         28         29         30
     1  Pt   0.000008   0.000361   0.005317   0.000045  -0.006062  -0.000155
     2  N    0.000000  -0.000005  -0.035622   0.002210  -0.008558   0.001048
     3  C   -0.000000   0.000011   0.436550   0.009073  -0.005575   0.007826
     4  C    0.000000  -0.000000   0.012630   0.000484  -0.000258   0.000364
     5  C    0.000000  -0.000001  -0.044563  -0.009703   0.013388  -0.007532
     6  O   -0.000000  -0.000000   0.003136  -0.000076  -0.000202  -0.000069
     7  C   -0.000000   0.000000  -0.000262   0.000007   0.000001   0.000008
     8  H    0.000000  -0.000000  -0.000002  -0.000000  -0.000001  -0.000000
     9  H   -0.000000   0.000000   0.000010  -0.000005  -0.000000   0.000002
    10  H    0.000000   0.000000   0.000009   0.000002  -0.000000  -0.000004
    11  C    0.000008  -0.000002  -0.000000  -0.000000   0.000002   0.000000
    12  H   -0.000003  -0.000000   0.000000  -0.000000   0.000000   0.000000
    13  H    0.000002  -0.000000  -0.000000   0.000000   0.000000  -0.000000
    14  H   -0.000000  -0.000001   0.000001  -0.000000  -0.000004  -0.000000
    15  N   -0.000000   0.000000  -0.007419  -0.000266   0.000040  -0.000038
    16  O   -0.000000  -0.000000   0.014273   0.006641   0.000845   0.004156
    17  O    0.000000  -0.000000   0.000172  -0.000024   0.000005  -0.000018
    18  N   -0.000086   0.000123   0.000031  -0.000007   0.000061   0.000001
    19  C    0.000606  -0.000749   0.000017  -0.000003  -0.000052   0.000000
    20  C    0.005080  -0.010094  -0.000009  -0.000005   0.000021   0.000000
    21  C   -0.009521   0.016112   0.000002   0.000002  -0.000003  -0.000000
    22  O    0.001105  -0.000697   0.000218  -0.000005  -0.000369   0.000003
    23  C    0.374613   0.356654  -0.000004  -0.000001   0.000002   0.000000
    24  H   -0.012183  -0.014678  -0.000000  -0.000000  -0.000000  -0.000000
    25  H    0.559587  -0.013293   0.000000   0.000000   0.000000  -0.000000
    26  H   -0.013293   0.610593   0.000011   0.000016   0.000003  -0.000000
    27  C    0.000000   0.000011   4.404726   0.364264   0.361505   0.366163
    28  H    0.000000   0.000016   0.364264   0.582697  -0.015162  -0.011649
    29  H    0.000000   0.000003   0.361505  -0.015162   0.604345  -0.013603
    30  H   -0.000000  -0.000000   0.366163  -0.011649  -0.013603   0.576545
    31  N   -0.000080   0.000055  -0.000000   0.000000   0.000000  -0.000000
    32  O   -0.000019   0.000006   0.000000   0.000000  -0.000000   0.000000
    33  O    0.004140   0.000726  -0.000000   0.000000  -0.000000   0.000000
    34  Cl   0.000000  -0.000001   0.000016   0.000000  -0.000455  -0.000000
    35  H    0.000000   0.000000  -0.000070   0.000001   0.000076  -0.000017
    36  O   -0.000000   0.000000   0.000517   0.000002  -0.002200  -0.000052
    37  H   -0.000000   0.000000   0.000014  -0.000001   0.000081   0.000010
              31         32         33         34         35         36
     1  Pt  -0.000035   0.000041   0.000084   0.267126  -0.024310   0.176217
     2  N    0.000000  -0.000000  -0.000000  -0.002012   0.000196  -0.002621
     3  C   -0.000000  -0.000000   0.000000  -0.000045   0.000368  -0.001222
     4  C   -0.000000  -0.000000  -0.000000  -0.000001  -0.000006  -0.000023
     5  C    0.000000  -0.000000  -0.000000  -0.000000   0.000023   0.000019
     6  O    0.000000  -0.000000  -0.000000   0.000008  -0.000108  -0.000017
     7  C   -0.000000   0.000000   0.000000   0.000000   0.000000  -0.000000
     8  H    0.000000  -0.000000  -0.000000   0.000000  -0.000001  -0.000000
     9  H    0.000000   0.000000   0.000000  -0.000000  -0.000000   0.000000
    10  H   -0.000000  -0.000000   0.000000  -0.000000   0.000000  -0.000000
    11  C   -0.007583   0.013119   0.000162   0.003402   0.000005   0.000018
    12  H    0.000094   0.002763  -0.000014   0.001260  -0.000000  -0.000000
    13  H   -0.000494   0.008556  -0.000019   0.000171   0.000000   0.000000
    14  H    0.000038   0.000829   0.000006  -0.002453  -0.000040  -0.000236
    15  N    0.000000   0.000000  -0.000000   0.000000   0.000000   0.000000
    16  O    0.000000  -0.000000  -0.000000  -0.000000  -0.000000  -0.000000
    17  O    0.000000  -0.000000   0.000000  -0.000000  -0.000000   0.000000
    18  N    0.002965   0.000099   0.000008  -0.002669   0.000167  -0.001224
    19  C   -0.029031  -0.025286   0.003213   0.001563  -0.000024  -0.000002
    20  C   -0.030913   0.003172  -0.028172   0.000117  -0.000000   0.000000
    21  C    0.298095  -0.061260  -0.062978  -0.001097   0.000000  -0.000001
    22  O    0.002034  -0.000021   0.000000  -0.000291   0.000001   0.000005
    23  C   -0.006036   0.000181   0.015682   0.000000  -0.000000   0.000000
    24  H   -0.000162  -0.000013   0.005247   0.000000  -0.000000  -0.000000
    25  H   -0.000080  -0.000019   0.004140   0.000000   0.000000  -0.000000
    26  H    0.000055   0.000006   0.000726  -0.000001   0.000000   0.000000
    27  C   -0.000000   0.000000  -0.000000   0.000016  -0.000070   0.000517
    28  H    0.000000   0.000000   0.000000   0.000000   0.000001   0.000002
    29  H    0.000000  -0.000000  -0.000000  -0.000455   0.000076  -0.002200
    30  H   -0.000000   0.000000   0.000000  -0.000000  -0.000017  -0.000052
    31  N    5.925188   0.293361   0.298059  -0.000001  -0.000000  -0.000000
    32  O    0.293361   8.063337  -0.086264  -0.000000   0.000000  -0.000000
    33  O    0.298059  -0.086264   8.067394   0.000000   0.000000  -0.000000
    34  Cl  -0.000001  -0.000000   0.000000  16.955441  -0.001241  -0.015830
    35  H   -0.000000   0.000000   0.000000  -0.001241   0.468162   0.318466
    36  O   -0.000000  -0.000000  -0.000000  -0.015830   0.318466   7.408646
    37  H   -0.000000   0.000000   0.000000   0.035422  -0.005622   0.296962
              37
     1  Pt  -0.025829
     2  N    0.000267
     3  C   -0.000066
     4  C    0.000007
     5  C   -0.000002
     6  O   -0.000006
     7  C   -0.000000
     8  H    0.000000
     9  H    0.000000
    10  H   -0.000000
    11  C   -0.000011
    12  H   -0.000002
    13  H   -0.000001
    14  H    0.000003
    15  N   -0.000000
    16  O    0.000000
    17  O    0.000000
    18  N    0.000267
    19  C   -0.000048
    20  C    0.000000
    21  C    0.000004
    22  O    0.000000
    23  C   -0.000000
    24  H    0.000000
    25  H   -0.000000
    26  H    0.000000
    27  C    0.000014
    28  H   -0.000001
    29  H    0.000081
    30  H    0.000010
    31  N   -0.000000
    32  O    0.000000
    33  O    0.000000
    34  Cl   0.035422
    35  H   -0.005622
    36  O    0.296962
    37  H    0.468117
 Mulliken charges:
               1
     1  Pt   0.338166
     2  N   -0.179762
     3  C    0.019051
     4  C    0.061726
     5  C    0.010475
     6  O   -0.143305
     7  C    0.116494
     8  H    0.057547
     9  H    0.085046
    10  H    0.086632
    11  C    0.125377
    12  H    0.084159
    13  H    0.069100
    14  H    0.066333
    15  N    0.254634
    16  O   -0.215536
    17  O   -0.216466
    18  N   -0.161212
    19  C    0.036853
    20  C    0.071146
    21  C    0.007048
    22  O   -0.141524
    23  C    0.116942
    24  H    0.084088
    25  H    0.090035
    26  H    0.054849
    27  C    0.118371
    28  H    0.071463
    29  H    0.072130
    30  H    0.077014
    31  N    0.254446
    32  O   -0.212600
    33  O   -0.217273
    34  Cl  -0.238430
    35  H    0.243973
    36  O   -0.177425
    37  H    0.230435
 Sum of Mulliken charges =   1.00000
 Mulliken charges with hydrogens summed into heavy atoms:
               1
     1  Pt   0.338166
     2  N   -0.179762
     3  C    0.019051
     4  C    0.061726
     5  C    0.010475
     6  O   -0.143305
     7  C    0.345719
    11  C    0.344970
    15  N    0.254634
    16  O   -0.215536
    17  O   -0.216466
    18  N   -0.161212
    19  C    0.036853
    20  C    0.071146
    21  C    0.007048
    22  O   -0.141524
    23  C    0.345914
    27  C    0.338978
    31  N    0.254446
    32  O   -0.212600
    33  O   -0.217273
    34  Cl  -0.238430
    36  O    0.296984
 Electronic spatial extent (au):  <R**2>=           9977.2052
 Charge=              1.0000 electrons
 Dipole moment (field-independent basis, Debye):
    X=             -3.4859    Y=             -0.6871    Z=              1.6727  Tot=              3.9270
 Quadrupole moment (field-independent basis, Debye-Ang):
   XX=           -147.7553   YY=           -129.0691   ZZ=           -132.1745
   XY=             10.9029   XZ=            -15.4327   YZ=             -6.4598
 Traceless Quadrupole moment (field-independent basis, Debye-Ang):
   XX=            -11.4223   YY=              7.2638   ZZ=              4.1585
   XY=             10.9029   XZ=            -15.4327   YZ=             -6.4598
 Octapole moment (field-independent basis, Debye-Ang**2):
  XXX=              0.7140  YYY=           -223.1962  ZZZ=              5.9532  XYY=            -36.0954
  XXY=           -122.4834  XXZ=             23.4472  XZZ=            -11.1809  YZZ=            -24.7822
  YYZ=              4.3116  XYZ=            -42.2490
 Hexadecapole moment (field-independent basis, Debye-Ang**3):
 XXXX=          -8317.9344 YYYY=          -2873.6908 ZZZZ=          -1314.8320 XXXY=             19.9414
 XXXZ=           -282.3293 YYYX=             91.4483 YYYZ=            -75.3073 ZZZX=            -89.4758
 ZZZY=             -3.9491 XXYY=          -2028.6113 XXZZ=          -1385.9359 YYZZ=           -695.5234
 XXYZ=             -6.4918 YYXZ=           -103.0864 ZZXY=              8.1537
 N-N= 2.449477398048D+03 E-N=-8.864942582654D+03  KE= 1.623830984006D+03
 Unable to Open any file for archive entry.
 1\1\GINC-E2365\FOpt\RB3LYP\GenECP\C10H14Cl1N4O7Pt1(1+)\PHARMD\02-Aug-2
 025\0\\# B3LYP/genecp Geom=PrintInputOrient Integral=(Grid=UltraFine) 
 Opt\\CLR\\1,1\Pt,0.2928698056,0.0347951433,-1.3891309978\N,-1.30922670
 35,0.2745926165,-0.1028076832\C,-2.0244923513,1.31694011,0.2859989424\
 C,-2.8463460159,-0.5254631637,1.2951878026\C,-3.0239325995,0.837719972
 9,1.1834606544\O,-1.8108765721,-0.8634303119,0.5187308479\C,-3.5319716
 8,-1.5994559513,2.0495032884\H,-3.0602076505,-2.5696333465,1.847076572
 5\H,-3.5007200641,-1.3811841383,3.1278523407\H,-4.5965738944,-1.632846
 6519,1.7717452388\C,2.4660598335,-2.4354793614,-0.1042767336\H,3.40988
 8838,-2.5548602135,-0.6583099982\H,2.4622119972,-3.2006298708,0.683981
 0819\H,1.6259347766,-2.58221472,-0.7934446512\N,-4.0353797398,1.619873
 8334,1.8596962094\O,-4.0475112448,2.8180231159,1.6358628885\O,-4.79154
 50856,1.0126645563,2.5985772431\N,1.5694404898,-0.1399787964,0.1268045
 281\C,2.4191318264,-1.0807391265,0.5067117269\C,2.7823393897,0.7701064
 628,1.7484369605\C,3.2125412873,-0.5252189675,1.553248741\O,1.78720956
 13,1.0018615422,0.8843709562\C,3.1817434694,1.8673970797,2.6583735034\
 H,3.1020584522,1.5385291327,3.705414052\H,4.2400244912,2.1218110565,2.
 4926545475\H,2.5550811991,2.7522755693,2.4883420706\C,-1.7567786153,2.
 7021682806,-0.1876372757\H,-1.6251873209,3.3727629621,0.6735125013\H,-
 0.8659702763,2.7306867934,-0.8283410328\H,-2.6274077641,3.0818727995,-
 0.7434542799\N,4.2711024685,-1.1834703868,2.2882231005\O,4.5278258916,
 -2.333462755,1.9785916062\O,4.8175315067,-0.5276300505,3.1589044495\Cl
 ,1.9860218361,-0.1491736276,-2.9410524556\H,-1.5052388133,-0.495008578
 6,-3.2839348694\O,-0.9213098474,0.2599318483,-3.0948065492\H,-0.266340
 8813,0.2878671426,-3.8270653278\\Version=ES64L-G16RevC.01\State=1-A\HF
 =-1713.2644278\RMSD=7.238e-09\RMSF=4.766e-06\Dipole=-1.4967181,-0.3172
 608,-0.214948\Quadrupole=-1.9320433,-2.7413401,4.6733834,13.2997614,8.
 6784533,2.6643428\PG=C01 [X(C10H14Cl1N4O7Pt1)]\\@
 The archive entry for this job was punched.


 HE THAT FOLLOWS NATURE IS NEVER LOST.

                             -- BACON
 Job cpu time:       0 days 13 hours  7 minutes 51.3 seconds.
 Elapsed time:       0 days  0 hours 18 minutes 35.8 seconds.
 File lengths (MBytes):  RWF=    107 Int=      0 D2E=      0 Chk=     14 Scr=      1
 Normal termination of Gaussian 16 at Sat Aug  2 11:04:59 2025.
