 Entering Gaussian System, Link 0=g16
 Input=CIX_large_mk.gjf
 Output=CIX_large_mk.log
 Initial command:
 /opt/exp_soft/local/skylake/gaussian/g16/C.01/l1.exe "/mnt/storage_5/scratch/pl0251-02/35465937/Gau-5032.inp" -scrdir="/mnt/storage_5/scratch/pl0251-02/35465937/"
 Entering Link 1 = /opt/exp_soft/local/skylake/gaussian/g16/C.01/l1.exe PID=      5033.
  
 Copyright (c) 1988-2019, Gaussian, Inc.  All Rights Reserved.
  
 This is part of the Gaussian(R) 16 program.  It is based on
 the Gaussian(R) 09 system (copyright 2009, Gaussian, Inc.),
 the Gaussian(R) 03 system (copyright 2003, Gaussian, Inc.),
 the Gaussian(R) 98 system (copyright 1998, Gaussian, Inc.),
 the Gaussian(R) 94 system (copyright 1995, Gaussian, Inc.),
 the Gaussian 92(TM) system (copyright 1992, Gaussian, Inc.),
 the Gaussian 90(TM) system (copyright 1990, Gaussian, Inc.),
 the Gaussian 88(TM) system (copyright 1988, Gaussian, Inc.),
 the Gaussian 86(TM) system (copyright 1986, Carnegie Mellon
 University), and the Gaussian 82(TM) system (copyright 1983,
 Carnegie Mellon University). Gaussian is a federally registered
 trademark of Gaussian, Inc.
  
 This software contains proprietary and confidential information,
 including trade secrets, belonging to Gaussian, Inc.
  
 This software is provided under written license and may be
 used, copied, transmitted, or stored only in accord with that
 written license.
  
 The following legend is applicable only to US Government
 contracts under FAR:
  
                    RESTRICTED RIGHTS LEGEND
  
 Use, reproduction and disclosure by the US Government is
 subject to restrictions as set forth in subparagraphs (a)
 and (c) of the Commercial Computer Software - Restricted
 Rights clause in FAR 52.227-19.
  
 Gaussian, Inc.
 340 Quinnipiac St., Bldg. 40, Wallingford CT 06492
  
  
 ---------------------------------------------------------------
 Warning -- This program may not be used in any manner that
 competes with the business of Gaussian, Inc. or will provide
 assistance to any competitor of Gaussian, Inc.  The licensee
 of this program is prohibited from giving any competitor of
 Gaussian, Inc. access to this program.  By using this program,
 the user acknowledges that Gaussian, Inc. is engaged in the
 business of creating and licensing software in the field of
 computational chemistry and represents and warrants to the
 licensee that it is not a competitor of Gaussian, Inc. and that
 it will not use this program in any manner prohibited above.
 ---------------------------------------------------------------
  

 Cite this work as:
 Gaussian 16, Revision C.01,
 M. J. Frisch, G. W. Trucks, H. B. Schlegel, G. E. Scuseria, 
 M. A. Robb, J. R. Cheeseman, G. Scalmani, V. Barone, 
 G. A. Petersson, H. Nakatsuji, X. Li, M. Caricato, A. V. Marenich, 
 J. Bloino, B. G. Janesko, R. Gomperts, B. Mennucci, H. P. Hratchian, 
 J. V. Ortiz, A. F. Izmaylov, J. L. Sonnenberg, D. Williams-Young, 
 F. Ding, F. Lipparini, F. Egidi, J. Goings, B. Peng, A. Petrone, 
 T. Henderson, D. Ranasinghe, V. G. Zakrzewski, J. Gao, N. Rega, 
 G. Zheng, W. Liang, M. Hada, M. Ehara, K. Toyota, R. Fukuda, 
 J. Hasegawa, M. Ishida, T. Nakajima, Y. Honda, O. Kitao, H. Nakai, 
 T. Vreven, K. Throssell, J. A. Montgomery, Jr., J. E. Peralta, 
 F. Ogliaro, M. J. Bearpark, J. J. Heyd, E. N. Brothers, K. N. Kudin, 
 V. N. Staroverov, T. A. Keith, R. Kobayashi, J. Normand, 
 K. Raghavachari, A. P. Rendell, J. C. Burant, S. S. Iyengar, 
 J. Tomasi, M. Cossi, J. M. Millam, M. Klene, C. Adamo, R. Cammi, 
 J. W. Ochterski, R. L. Martin, K. Morokuma, O. Farkas, 
 J. B. Foresman, and D. J. Fox, Gaussian, Inc., Wallingford CT, 2019.
 
 ******************************************
 Gaussian 16:  ES64L-G16RevC.01  3-Jul-2019
                 2-Aug-2025 
 ******************************************
 %Chk=CIX_large_mk.chk
 %Mem=3000MB
 %NProcShared=48
 Will use up to   48 processors via shared memory.
 ----------------------------------------------------------------------
 # B3LYP/genecp Integral=(Grid=UltraFine) Opt=calcfc scf=xqc Pop(MK,Rea
 dRadii) IOp(6/33=2,6/42=6)
 ----------------------------------------------------------------------
 1/10=4,18=20,19=15,26=4,38=1/1,3;
 2/9=110,12=2,17=6,18=5,40=1/2;
 3/5=7,11=2,16=1,17=8,25=1,30=1,71=2,74=-5,75=-5,140=1/1,2,3;
 4//1;
 5/5=2,8=3,13=1,38=5/2,8;
 8/6=4,10=90,11=11/1;
 11/6=1,8=1,9=11,15=111,16=1/1,2,10;
 10/6=1,13=1/2;
 6/7=2,8=2,9=2,10=2,15=8,20=101,28=1,33=2,42=6/1,2;
 7/10=1,25=1/1,2,3,16;
 1/10=4,18=20,19=15,26=4/3(2);
 2/9=110/2;
 99//99;
 2/9=110/2;
 3/5=7,6=1,11=2,16=1,17=8,25=1,30=1,71=1,74=-5,75=-5,82=7/1,2,3;
 4/5=5,16=3,69=1/1;
 5/5=2,8=3,13=1,38=5/2,8;
 7//1,2,3,16;
 1/18=20,19=15,26=4/3(-5);
 2/9=110/2;
 6/7=2,8=2,9=2,10=2,15=8,19=2,20=101,28=1,33=2,42=6/1,2;
 99/9=1/99;
 ---
 CLR
 ---
 Symbolic Z-matrix:
 Charge =  1 Multiplicity = 1
 Pt                   -1    0.363     0.126    -1.603 
 N                    -1   -1.08     -0.055    -0.19 
 C                    -1   -1.507     0.701     0.798 
 C                    -1   -2.994    -0.96      0.461 
 C                    -1   -2.734     0.139     1.254 
 O                    -1   -1.976    -1.097    -0.383 
 C                    -1   -4.107    -1.918     0.357 
 H                    0    -3.8      -2.789    -0.236 
 H                    0    -4.448    -2.226     1.354 
 H                    0    -4.946    -1.415    -0.153 
 C                    -1    1.298    -1.838     1.154 
 H                    0     2.036    -2.62      1.378 
 H                    0     0.651    -1.728     2.038 
 H                    0     0.689    -2.136     0.291 
 N                    -1   -3.573     0.644     2.285 
 O                    -1   -3.152     1.572     2.967 
 O                    -1   -4.675     0.125     2.435 
 N                    -1    1.751     0.187    -0.172 
 C                    -1    1.996    -0.558     0.887 
 C                    -1    3.321     1.27      0.965 
 C                    -1    3.003     0.11      1.642 
 O                    -1    2.56      1.316    -0.128 
 C                    -1    4.267     2.375     1.196 
 H                    0     4.08      2.824     2.184 
 H                    0     5.297     1.985     1.203 
 H                    0     4.159     3.133     0.41 
 C                    -1   -0.793     1.917     1.253 
 H                    0    -0.432     1.773     2.283 
 H                    0     0.054     2.146     0.596 
 H                    0    -1.491     2.766     1.261 
 N                    -1    3.586    -0.323     2.87 
 O                    -1    3.153    -1.347     3.383 
 O                    -1    4.488     0.36      3.343 
 Cl                   -1    1.986     0.336    -3.255 
 H                    0    -2.016     0.519    -2.641 
 O                    -1   -1.116     0.112    -3.037 
 H                    0    -1.336    -0.804    -3.283 
 

 GradGradGradGradGradGradGradGradGradGradGradGradGradGradGradGradGradGrad
 Berny optimization.
 Initialization pass.
                           ----------------------------
                           !    Initial Parameters    !
                           ! (Angstroms and Degrees)  !
 --------------------------                            --------------------------
 ! Name  Definition              Value          Derivative Info.                !
 --------------------------------------------------------------------------------
 ! X1    R(1,-1)                 0.363          frozen, calculate D2E/DX2 analyt!
 ! Y1    R(1,-2)                 0.126          frozen, calculate D2E/DX2 analyt!
 ! Z1    R(1,-3)                -1.603          frozen, calculate D2E/DX2 analyt!
 ! X2    R(2,-1)                -1.08           frozen, calculate D2E/DX2 analyt!
 ! Y2    R(2,-2)                -0.055          frozen, calculate D2E/DX2 analyt!
 ! Z2    R(2,-3)                -0.19           frozen, calculate D2E/DX2 analyt!
 ! X3    R(3,-1)                -1.507          frozen, calculate D2E/DX2 analyt!
 ! Y3    R(3,-2)                 0.701          frozen, calculate D2E/DX2 analyt!
 ! Z3    R(3,-3)                 0.798          frozen, calculate D2E/DX2 analyt!
 ! X4    R(4,-1)                -2.994          frozen, calculate D2E/DX2 analyt!
 ! Y4    R(4,-2)                -0.96           frozen, calculate D2E/DX2 analyt!
 ! Z4    R(4,-3)                 0.461          frozen, calculate D2E/DX2 analyt!
 ! X5    R(5,-1)                -2.734          frozen, calculate D2E/DX2 analyt!
 ! Y5    R(5,-2)                 0.139          frozen, calculate D2E/DX2 analyt!
 ! Z5    R(5,-3)                 1.254          frozen, calculate D2E/DX2 analyt!
 ! X6    R(6,-1)                -1.976          frozen, calculate D2E/DX2 analyt!
 ! Y6    R(6,-2)                -1.097          frozen, calculate D2E/DX2 analyt!
 ! Z6    R(6,-3)                -0.383          frozen, calculate D2E/DX2 analyt!
 ! X7    R(7,-1)                -4.107          frozen, calculate D2E/DX2 analyt!
 ! Y7    R(7,-2)                -1.918          frozen, calculate D2E/DX2 analyt!
 ! Z7    R(7,-3)                 0.357          frozen, calculate D2E/DX2 analyt!
 ! X11   R(11,-1)                1.298          frozen, calculate D2E/DX2 analyt!
 ! Y11   R(11,-2)               -1.838          frozen, calculate D2E/DX2 analyt!
 ! Z11   R(11,-3)                1.154          frozen, calculate D2E/DX2 analyt!
 ! X15   R(15,-1)               -3.573          frozen, calculate D2E/DX2 analyt!
 ! Y15   R(15,-2)                0.644          frozen, calculate D2E/DX2 analyt!
 ! Z15   R(15,-3)                2.285          frozen, calculate D2E/DX2 analyt!
 ! X16   R(16,-1)               -3.152          frozen, calculate D2E/DX2 analyt!
 ! Y16   R(16,-2)                1.572          frozen, calculate D2E/DX2 analyt!
 ! Z16   R(16,-3)                2.967          frozen, calculate D2E/DX2 analyt!
 ! X17   R(17,-1)               -4.675          frozen, calculate D2E/DX2 analyt!
 ! Y17   R(17,-2)                0.125          frozen, calculate D2E/DX2 analyt!
 ! Z17   R(17,-3)                2.435          frozen, calculate D2E/DX2 analyt!
 ! X18   R(18,-1)                1.751          frozen, calculate D2E/DX2 analyt!
 ! Y18   R(18,-2)                0.187          frozen, calculate D2E/DX2 analyt!
 ! Z18   R(18,-3)               -0.172          frozen, calculate D2E/DX2 analyt!
 ! X19   R(19,-1)                1.996          frozen, calculate D2E/DX2 analyt!
 ! Y19   R(19,-2)               -0.558          frozen, calculate D2E/DX2 analyt!
 ! Z19   R(19,-3)                0.887          frozen, calculate D2E/DX2 analyt!
 ! X20   R(20,-1)                3.321          frozen, calculate D2E/DX2 analyt!
 ! Y20   R(20,-2)                1.27           frozen, calculate D2E/DX2 analyt!
 ! Z20   R(20,-3)                0.965          frozen, calculate D2E/DX2 analyt!
 ! X21   R(21,-1)                3.003          frozen, calculate D2E/DX2 analyt!
 ! Y21   R(21,-2)                0.11           frozen, calculate D2E/DX2 analyt!
 ! Z21   R(21,-3)                1.642          frozen, calculate D2E/DX2 analyt!
 ! X22   R(22,-1)                2.56           frozen, calculate D2E/DX2 analyt!
 ! Y22   R(22,-2)                1.316          frozen, calculate D2E/DX2 analyt!
 ! Z22   R(22,-3)               -0.128          frozen, calculate D2E/DX2 analyt!
 ! X23   R(23,-1)                4.267          frozen, calculate D2E/DX2 analyt!
 ! Y23   R(23,-2)                2.375          frozen, calculate D2E/DX2 analyt!
 ! Z23   R(23,-3)                1.196          frozen, calculate D2E/DX2 analyt!
 ! X27   R(27,-1)               -0.793          frozen, calculate D2E/DX2 analyt!
 ! Y27   R(27,-2)                1.917          frozen, calculate D2E/DX2 analyt!
 ! Z27   R(27,-3)                1.253          frozen, calculate D2E/DX2 analyt!
 ! X31   R(31,-1)                3.586          frozen, calculate D2E/DX2 analyt!
 ! Y31   R(31,-2)               -0.323          frozen, calculate D2E/DX2 analyt!
 ! Z31   R(31,-3)                2.87           frozen, calculate D2E/DX2 analyt!
 ! X32   R(32,-1)                3.153          frozen, calculate D2E/DX2 analyt!
 ! Y32   R(32,-2)               -1.347          frozen, calculate D2E/DX2 analyt!
 ! Z32   R(32,-3)                3.383          frozen, calculate D2E/DX2 analyt!
 ! X33   R(33,-1)                4.488          frozen, calculate D2E/DX2 analyt!
 ! Y33   R(33,-2)                0.36           frozen, calculate D2E/DX2 analyt!
 ! Z33   R(33,-3)                3.343          frozen, calculate D2E/DX2 analyt!
 ! X34   R(34,-1)                1.986          frozen, calculate D2E/DX2 analyt!
 ! Y34   R(34,-2)                0.336          frozen, calculate D2E/DX2 analyt!
 ! Z34   R(34,-3)               -3.255          frozen, calculate D2E/DX2 analyt!
 ! X36   R(36,-1)               -1.116          frozen, calculate D2E/DX2 analyt!
 ! Y36   R(36,-2)                0.112          frozen, calculate D2E/DX2 analyt!
 ! Z36   R(36,-3)               -3.037          frozen, calculate D2E/DX2 analyt!
 ! R1    R(7,8)                  1.0975         calculate D2E/DX2 analytically  !
 ! R2    R(7,9)                  1.0978         calculate D2E/DX2 analytically  !
 ! R3    R(7,10)                 1.1032         calculate D2E/DX2 analytically  !
 ! R4    R(11,12)                1.0983         calculate D2E/DX2 analytically  !
 ! R5    R(11,13)                1.101          calculate D2E/DX2 analytically  !
 ! R6    R(11,14)                1.0975         calculate D2E/DX2 analytically  !
 ! R7    R(23,24)                1.1012         calculate D2E/DX2 analytically  !
 ! R8    R(23,25)                1.1014         calculate D2E/DX2 analytically  !
 ! R9    R(23,26)                1.0973         calculate D2E/DX2 analytically  !
 ! R10   R(27,28)                1.1009         calculate D2E/DX2 analytically  !
 ! R11   R(27,29)                1.0961         calculate D2E/DX2 analytically  !
 ! R12   R(27,30)                1.0991         calculate D2E/DX2 analytically  !
 ! R13   R(35,36)                1.0642         calculate D2E/DX2 analytically  !
 ! R14   R(36,37)                0.9736         calculate D2E/DX2 analytically  !
 ! A1    A(4,7,8)              110.0672         calculate D2E/DX2 analytically  !
 ! A2    A(4,7,9)              110.6862         calculate D2E/DX2 analytically  !
 ! A3    A(4,7,10)             108.1149         calculate D2E/DX2 analytically  !
 ! A4    A(8,7,9)              110.7893         calculate D2E/DX2 analytically  !
 ! A5    A(8,7,10)             108.9534         calculate D2E/DX2 analytically  !
 ! A6    A(9,7,10)             108.1519         calculate D2E/DX2 analytically  !
 ! A7    A(12,11,13)           107.5925         calculate D2E/DX2 analytically  !
 ! A8    A(12,11,14)           109.8709         calculate D2E/DX2 analytically  !
 ! A9    A(12,11,19)           109.5831         calculate D2E/DX2 analytically  !
 ! A10   A(13,11,14)           109.415          calculate D2E/DX2 analytically  !
 ! A11   A(13,11,19)           109.5784         calculate D2E/DX2 analytically  !
 ! A12   A(14,11,19)           110.7419         calculate D2E/DX2 analytically  !
 ! A13   A(20,23,24)           109.7269         calculate D2E/DX2 analytically  !
 ! A14   A(20,23,25)           109.6331         calculate D2E/DX2 analytically  !
 ! A15   A(20,23,26)           110.0417         calculate D2E/DX2 analytically  !
 ! A16   A(24,23,25)           107.3061         calculate D2E/DX2 analytically  !
 ! A17   A(24,23,26)           110.1386         calculate D2E/DX2 analytically  !
 ! A18   A(25,23,26)           109.9506         calculate D2E/DX2 analytically  !
 ! A19   A(3,27,28)            109.7533         calculate D2E/DX2 analytically  !
 ! A20   A(3,27,29)            111.0848         calculate D2E/DX2 analytically  !
 ! A21   A(3,27,30)            109.2769         calculate D2E/DX2 analytically  !
 ! A22   A(28,27,29)           109.5559         calculate D2E/DX2 analytically  !
 ! A23   A(28,27,30)           107.6061         calculate D2E/DX2 analytically  !
 ! A24   A(29,27,30)           109.4938         calculate D2E/DX2 analytically  !
 ! A25   A(1,36,35)            110.2151         calculate D2E/DX2 analytically  !
 ! A26   A(1,36,37)            110.1505         calculate D2E/DX2 analytically  !
 ! A27   A(35,36,37)           105.2326         calculate D2E/DX2 analytically  !
 ! D1    D(19,18,36,35)         77.2062         calculate D2E/DX2 analytically  !
 ! D2    D(19,18,36,37)        -38.2489         calculate D2E/DX2 analytically  !
 ! D3    D(22,18,36,35)        -91.5279         calculate D2E/DX2 analytically  !
 ! D4    D(22,18,36,37)        153.0169         calculate D2E/DX2 analytically  !
 ! D5    D(2,1,36,35)           29.3222         calculate D2E/DX2 analytically  !
 ! D6    D(2,1,36,37)          -86.3587         calculate D2E/DX2 analytically  !
 ! D7    D(34,1,36,35)        -150.6118         calculate D2E/DX2 analytically  !
 ! D8    D(34,1,36,37)          93.7073         calculate D2E/DX2 analytically  !
 ! D9    D(2,3,27,28)         -115.2727         calculate D2E/DX2 analytically  !
 ! D10   D(2,3,27,29)            6.0347         calculate D2E/DX2 analytically  !
 ! D11   D(2,3,27,30)          126.9481         calculate D2E/DX2 analytically  !
 ! D12   D(5,3,27,28)           66.7649         calculate D2E/DX2 analytically  !
 ! D13   D(5,3,27,29)         -171.9277         calculate D2E/DX2 analytically  !
 ! D14   D(5,3,27,30)          -51.0143         calculate D2E/DX2 analytically  !
 ! D15   D(5,4,7,8)           -165.8216         calculate D2E/DX2 analytically  !
 ! D16   D(5,4,7,9)            -43.0121         calculate D2E/DX2 analytically  !
 ! D17   D(5,4,7,10)            75.2755         calculate D2E/DX2 analytically  !
 ! D18   D(6,4,7,8)             15.7912         calculate D2E/DX2 analytically  !
 ! D19   D(6,4,7,9)            138.6007         calculate D2E/DX2 analytically  !
 ! D20   D(6,4,7,10)          -103.1117         calculate D2E/DX2 analytically  !
 ! D21   D(12,11,19,18)        130.0883         calculate D2E/DX2 analytically  !
 ! D22   D(12,11,19,21)        -49.9804         calculate D2E/DX2 analytically  !
 ! D23   D(13,11,19,18)       -112.0711         calculate D2E/DX2 analytically  !
 ! D24   D(13,11,19,21)         67.8602         calculate D2E/DX2 analytically  !
 ! D25   D(14,11,19,18)          8.7226         calculate D2E/DX2 analytically  !
 ! D26   D(14,11,19,21)       -171.3462         calculate D2E/DX2 analytically  !
 ! D27   D(21,20,23,24)        -56.1811         calculate D2E/DX2 analytically  !
 ! D28   D(21,20,23,25)         61.4288         calculate D2E/DX2 analytically  !
 ! D29   D(21,20,23,26)       -177.523          calculate D2E/DX2 analytically  !
 ! D30   D(22,20,23,24)        124.1314         calculate D2E/DX2 analytically  !
 ! D31   D(22,20,23,25)       -118.2587         calculate D2E/DX2 analytically  !
 ! D32   D(22,20,23,26)          2.7895         calculate D2E/DX2 analytically  !
 --------------------------------------------------------------------------------
 Trust Radius=3.00D-01 FncErr=1.00D-07 GrdErr=1.00D-06 EigMax=2.50D+02 EigMin=1.00D-04
 Number of steps in this run=    152 maximum allowed number of steps=    222.
 GradGradGradGradGradGradGradGradGradGradGradGradGradGradGradGradGradGrad

                          Input orientation:                          
 ---------------------------------------------------------------------
 Center     Atomic      Atomic             Coordinates (Angstroms)
 Number     Number       Type             X           Y           Z
 ---------------------------------------------------------------------
      1         78           0        0.363000    0.126000   -1.603000
      2          7           0       -1.080000   -0.055000   -0.190000
      3          6           0       -1.507000    0.701000    0.798000
      4          6           0       -2.994000   -0.960000    0.461000
      5          6           0       -2.734000    0.139000    1.254000
      6          8           0       -1.976000   -1.097000   -0.383000
      7          6           0       -4.107000   -1.918000    0.357000
      8          1           0       -3.800000   -2.789000   -0.236000
      9          1           0       -4.448000   -2.226000    1.354000
     10          1           0       -4.946000   -1.415000   -0.153000
     11          6           0        1.298000   -1.838000    1.154000
     12          1           0        2.036000   -2.620000    1.378000
     13          1           0        0.651000   -1.728000    2.038000
     14          1           0        0.689000   -2.136000    0.291000
     15          7           0       -3.573000    0.644000    2.285000
     16          8           0       -3.152000    1.572000    2.967000
     17          8           0       -4.675000    0.125000    2.435000
     18          7           0        1.751000    0.187000   -0.172000
     19          6           0        1.996000   -0.558000    0.887000
     20          6           0        3.321000    1.270000    0.965000
     21          6           0        3.003000    0.110000    1.642000
     22          8           0        2.560000    1.316000   -0.128000
     23          6           0        4.267000    2.375000    1.196000
     24          1           0        4.080000    2.824000    2.184000
     25          1           0        5.297000    1.985000    1.203000
     26          1           0        4.159000    3.133000    0.410000
     27          6           0       -0.793000    1.917000    1.253000
     28          1           0       -0.432000    1.773000    2.283000
     29          1           0        0.054000    2.146000    0.596000
     30          1           0       -1.491000    2.766000    1.261000
     31          7           0        3.586000   -0.323000    2.870000
     32          8           0        3.153000   -1.347000    3.383000
     33          8           0        4.488000    0.360000    3.343000
     34         17           0        1.986000    0.336000   -3.255000
     35          1           0       -2.016000    0.519000   -2.641000
     36          8           0       -1.116000    0.112000   -3.037000
     37          1           0       -1.336000   -0.804000   -3.283000
 ---------------------------------------------------------------------
                    Distance matrix (angstroms):
                    1          2          3          4          5
     1  Pt   0.000000
     2  N    2.027703   0.000000
     3  C    3.097148   1.315298   0.000000
     4  C    4.087657   2.214999   2.254697   0.000000
     5  C    4.213553   2.204198   1.424538   1.379946   0.000000
     6  O    2.907757   1.387742   2.201710   1.329447   2.186785
     7  C    5.291544   3.596207   3.716671   1.472192   2.630777
     8  H    5.262745   3.856847   4.301988   2.116763   3.453931
     9  H    6.117309   4.294252   4.186400   2.124693   2.922503
    10  H    5.715126   4.098405   4.148322   2.096265   3.047541
    11  C    3.511776   3.261949   3.800169   4.435358   4.491720
    12  H    4.384724   4.329816   4.890633   5.375629   5.511838
    13  H    4.095991   3.280133   3.477730   4.045093   3.944435
    14  H    2.968191   2.773316   3.623263   3.869931   4.221365
    15  N    5.556704   3.581798   2.546129   2.497005   1.421938
    16  O    5.943992   4.111808   2.858186   3.565953   2.272132
    17  O    6.456538   4.455003   3.612170   2.810634   2.272100
    18  N    1.994499   2.841382   3.437973   4.922532   4.706485
    19  C    3.055265   3.297683   3.723441   5.024259   4.795143
    20  C    4.080824   4.739035   4.864281   6.716111   6.166499
    21  C    4.183286   4.478207   4.626199   6.205133   5.750179
    22  O    2.901471   3.890127   4.216182   6.031087   5.596578
    23  C    5.304113   6.034592   6.024928   8.024000   7.349630
    24  H    5.952870   6.367897   6.135364   8.205417   7.382731
    25  H    5.972761   6.838726   6.935928   8.829738   8.240587
    26  H    5.244410   6.162018   6.178084   8.241399   7.562395
    27  C    3.563812   2.460366   1.481714   3.707937   2.632255
    28  H    4.294838   3.142804   2.123684   4.165671   3.004663
    29  H    3.001913   2.597721   2.136715   4.353822   3.497707
    30  H    4.313863   3.198806   2.116329   4.096594   2.906239
    31  N    5.531461   5.586321   5.592889   7.036011   6.539671
    32  O    5.900341   5.688047   5.708952   6.817145   6.434097
    33  O    6.444633   6.607340   6.521758   8.125801   7.521306
    34  Cl   2.325367   4.352868   5.362936   6.347336   6.530566
    35  H    2.625173   2.685698   3.481225   3.573000   3.978813
    36  O    2.060095   2.852121   3.899619   4.112429   4.585993
    37  H    2.563962   3.192677   4.353025   4.097662   4.840250
                    6          7          8          9         10
     6  O    0.000000
     7  C    2.400584   0.000000
     8  H    2.492278   1.097515   0.000000
     9  H    3.225305   1.097795   1.806924   0.000000
    10  H    2.995818   1.103191   1.791112   1.782351   0.000000
    11  C    3.691954   5.464031   5.368995   5.762557   6.393334
    12  H    4.638620   6.266713   6.057430   6.496004   7.248745
    13  H    3.627745   5.049795   5.109618   5.168719   6.018709
    14  H    2.938711   4.801406   4.566756   5.246603   5.698263
    15  N    3.563666   3.250567   4.265262   3.141542   3.473968
    16  O    4.441738   4.461415   5.449535   4.325065   4.677072
    17  O    4.088888   2.968932   4.048612   2.597555   3.023704
    18  N    3.947620   6.247162   6.298752   6.824870   6.885969
    19  C    4.204784   6.275118   6.311268   6.672739   7.071592
    20  C    5.956341   8.106059   8.284113   8.528229   8.763700
    21  C    5.508894   7.504406   7.629672   7.813913   8.290612
    22  O    5.144209   7.425825   7.570488   7.990879   7.987429
    23  C    7.315947   9.447626   9.684731   9.856236  10.053023
    24  H    7.657602   9.635946   9.972791   9.945762  10.242039
    25  H    8.056715  10.216866  10.373871  10.616984  10.877398
    26  H    7.493996   9.687217   9.941483  10.182852  10.193248
    27  C    3.627696   5.147100   5.779758   5.525728   5.506947
    28  H    4.210510   5.553250   6.204888   5.743109   6.039341
    29  H    3.949227   5.821266   6.316626   6.321151   6.183989
    30  H    4.226196   5.440637   6.199235   5.802806   5.605103
    31  N    6.489756   8.248724   8.383400   8.394333   9.117347
    32  O    6.368037   7.886084   7.969990   7.916103   8.837518
    33  O    7.601922   9.379739   9.561192   9.512918  10.216310
    34  Cl   5.098953   7.433149   7.235868   8.318839   7.793653
    35  H    2.776980   4.393092   4.462011   5.423069   4.302952
    36  O    3.040559   4.958449   4.844095   5.987433   5.031708
    37  H    2.984200   4.708401   4.392691   5.762673   4.816879
                   11         12         13         14         15
    11  C    0.000000
    12  H    1.098337   0.000000
    13  H    1.100984   1.774680   0.000000
    14  H    1.097476   1.797285   1.794413   0.000000
    15  N    5.582663   6.552650   4.850729   5.465261   0.000000
    16  O    5.892162   6.856612   5.120142   5.971894   1.226193
    17  O    6.416468   7.327332   5.653096   6.203334   1.227300
    18  N    2.462541   3.219157   3.124312   2.595870   5.881384
    19  C    1.482192   2.120029   2.121963   2.133905   5.866257
    20  C    3.713208   4.117511   4.155506   4.356895   7.047092
    21  C    2.634364   2.908210   3.011140   3.496329   6.628905
    22  O    3.630962   4.246729   4.195447   3.948735   6.624790
    23  C    5.154231   5.473619   5.533446   5.828399   8.102338
    24  H    5.525818   5.870665   5.700882   6.299518   7.958078
    25  H    5.532606   5.645420   6.005740   6.248844   9.035812
    26  H    5.783571   6.208153   6.211744   6.310105   8.336340
    27  C    4.299082   5.348199   3.998423   4.421377   3.227066
    28  H    4.160152   5.119424   3.672862   4.528243   3.337743
    29  H    4.210838   5.220594   4.176559   4.339559   4.273623
    30  H    5.383938   6.439131   5.038644   5.451872   3.144230
    31  N    3.236483   3.147185   3.358642   4.281451   7.247661
    32  O    2.941181   2.624546   2.866041   4.031660   7.099913
    33  O    4.449610   4.330581   4.559094   5.475137   8.135093
    34  Cl   4.963759   5.495919   5.835938   4.512993   7.854231
    35  H    5.562380   6.513400   5.835661   4.791938   5.167722
    36  O    5.214823   6.073809   5.680098   4.403080   5.885878
    37  H    5.262517   6.032674   5.754562   4.318371   6.172803
                   16         17         18         19         20
    16  O    0.000000
    17  O    2.167109   0.000000
    18  N    5.984226   6.934967   0.000000
    19  C    5.946865   6.882226   1.317775   0.000000
    20  C    6.782252   8.210234   2.220486   2.259047   0.000000
    21  C    6.463520   7.718857   2.205454   1.424885   1.380237
    22  O    6.501654   7.767411   1.389625   2.204585   1.332624
    23  C    7.669603   9.303601   3.604029   3.722286   1.472855
    24  H    7.381221   9.165022   4.234235   4.178898   2.115882
    25  H    8.641057  10.218523   4.206845   4.178912   2.114816
    26  H    7.900993   9.549254   3.849169   4.304600   2.116846
    27  C    2.936273   4.436024   3.390496   3.746746   4.174512
    28  H    2.811878   4.554345   3.648001   3.643839   4.009382
    29  H    4.028592   5.461667   2.703204   3.341805   3.402474
    30  H    2.663643   4.300118   4.383525   4.831979   5.047868
    31  N    7.000077   8.284567   3.589023   2.552570   2.497378
    32  O    6.960362   8.021413   4.117862   2.862025   3.567021
    33  O    7.744670   9.210877   4.458287   3.617281   2.800870
    34  Cl   8.163334   8.762964   3.095531   4.237393   4.523603
    35  H    5.817987   5.743805   4.516246   5.450033   6.484659
    36  O    6.505760   6.527590   4.053830   5.052843   6.086373
    37  H    6.928617   6.686366   4.493325   5.343373   6.635859
                   21         22         23         24         25
    21  C    0.000000
    22  O    2.187141   0.000000
    23  C    2.631888   2.405890   0.000000
    24  H    2.969762   3.151160   1.101233   0.000000
    25  H    2.995126   3.116134   1.101385   1.774083   0.000000
    26  H    3.463046   2.479462   1.097280   1.802442   1.800499
    27  C    4.222107   3.675727   5.081005   5.043366   6.090585
    28  H    3.869842   3.869604   4.860512   4.633848   5.833763
    29  H    3.733097   2.737355   4.261668   4.380651   5.280475
    30  H    5.234074   4.521330   5.771626   5.647241   6.833028
    31  N    1.426661   3.567492   3.247344   3.258564   3.321637
    32  O    2.275177   4.446385   4.458391   4.437812   4.522318
    33  O    2.271811   4.083988   2.952740   2.753369   2.806191
    34  Cl   5.006593   3.326861   5.401100   6.337010   5.792727
    35  H    6.610728   5.281113   7.592325   8.108937   8.390796
    36  O    6.233715   4.839925   7.212222   7.849344   7.912793
    37  H    6.627061   5.443091   7.846088   8.507851   8.479352
                   26         27         28         29         30
    26  H    0.000000
    27  C    5.168327   0.000000
    28  H    5.141499   1.100889   0.000000
    29  H    4.226084   1.096129   1.794796   0.000000
    30  H    5.725503   1.099122   1.775391   1.792666   0.000000
    31  N    4.280638   5.177637   4.569695   4.872583   6.156844
    32  O    5.470024   5.546306   4.878178   5.438034   6.556401
    33  O    4.049723   5.889084   5.227482   5.513271   6.772887
    34  Cl   5.096799   5.526705   6.211372   4.673214   6.195860
    35  H    7.366968   4.314321   5.322344   4.172553   4.533237
    36  O    6.988124   4.665453   5.615085   4.324898   5.065288
    37  H    7.702807   5.317329   6.199879   5.067666   5.780732
                   31         32         33         34         35
    31  N    0.000000
    32  O    1.224432   0.000000
    33  O    1.226304   2.167412   0.000000
    34  Cl   6.364739   6.946756   7.056499   0.000000
    35  H    7.903321   8.154084   8.839432   4.052961   0.000000
    36  O    7.562452   7.846620   8.495335   3.117708   1.064173
    37  H    7.894102   8.054907   8.898188   3.512274   1.620152
                   36         37
    36  O    0.000000
    37  H    0.973639   0.000000
 Stoichiometry    C10H14ClN4O7Pt(1+)
 Framework group  C1[X(C10H14ClN4O7Pt)]
 Deg. of freedom   105
 Full point group                 C1      NOp   1
 Largest Abelian subgroup         C1      NOp   1
 Largest concise Abelian subgroup C1      NOp   1
                         Standard orientation:                         
 ---------------------------------------------------------------------
 Center     Atomic      Atomic             Coordinates (Angstroms)
 Number     Number       Type             X           Y           Z
 ---------------------------------------------------------------------
      1         78           0        0.066863   -1.557787   -0.006928
      2          7           0       -1.371561   -0.130027    0.056429
      3          6           0       -1.709381    0.877527   -0.718633
      4          6           0       -3.359849    0.528277    0.777240
      5          6           0       -2.981752    1.338543   -0.273835
      6          8           0       -2.370100   -0.331191    0.998917
      7          6           0       -4.564831    0.420472    1.616136
      8          1           0       -4.353686   -0.192821    2.501477
      9          1           0       -4.924270    1.415762    1.908292
     10          1           0       -5.354346   -0.069075    1.021123
     11          6           0        0.829050    1.149259    2.096294
     12          1           0        1.486842    1.348894    2.952915
     13          1           0        0.206101    2.043433    1.939599
     14          1           0        0.183747    0.288673    2.314080
     15          7           0       -3.754286    2.389631   -0.839798
     16          8           0       -3.234468    3.083617   -1.706817
     17          8           0       -4.901298    2.543934   -0.431364
     18          7           0        1.469440   -0.143860    0.100835
     19          6           0        1.649596    0.897599    0.887880
     20          6           0        3.152916    0.993165   -0.795625
     21          6           0        2.726974    1.652103    0.339905
     22          8           0        2.388576   -0.088889   -0.939946
     23          6           0        4.207962    1.232869   -1.794985
     24          1           0        4.077953    2.231521   -2.240525
     25          1           0        5.193409    1.219231   -1.303295
     26          1           0        4.168383    0.462823   -2.575681
     27          6           0       -0.871509    1.346260   -1.847232
     28          1           0       -0.515672    2.368619   -1.646933
     29          1           0       -0.012941    0.682876   -2.003059
     30          1           0       -1.480226    1.379318   -2.761803
     31          7           0        3.276684    2.864080    0.853999
     32          8           0        2.748261    3.363117    1.839374
     33          8           0        4.248046    3.338293    0.274860
     34         17           0        1.684681   -3.226251   -0.085840
     35          1           0       -2.271553   -2.557472   -0.658063
     36          8           0       -1.421539   -2.972654   -0.170657
     37          1           0       -1.735436   -3.233112    0.713426
 ---------------------------------------------------------------------
 Rotational constants (GHZ):           0.2127102           0.1562100           0.1054638
 General basis read from cards:  (5D, 7F)
 ======================================================================================================
                                       Pseudopotential Parameters
 ======================================================================================================
  Center     Atomic      Valence      Angular      Power
  Number     Number     Electrons     Momentum     of R      Exponent        Coefficient   SO-Coeffient
 ======================================================================================================
    1         78           18
                                      H and up 
                                                     2        1.0000000        0.00000000    0.00000000
                                      S - H
                                                     2       13.4286510      579.22386100    0.00000000
                                                     2        6.7143260       29.66949100    0.00000000
                                      P - H
                                                     2       10.3659440      280.86077400    0.00000000
                                                     2        5.1829720       26.74538200    0.00000000
                                      D - H
                                                     2        7.6004790      120.39644400    0.00000000
                                                     2        3.8002400       15.81092100    0.00000000
                                      F - H
                                                     2        3.3095690       24.31437600    0.00000000
                                      G - H
                                                     2        5.2772890      -24.21867500    0.00000000
    2          7
                                   No pseudopotential on this center.
    3          6
                                   No pseudopotential on this center.
    4          6
                                   No pseudopotential on this center.
    5          6
                                   No pseudopotential on this center.
    6          8
                                   No pseudopotential on this center.
    7          6
                                   No pseudopotential on this center.
    8          1
                                   No pseudopotential on this center.
    9          1
                                   No pseudopotential on this center.
   10          1
                                   No pseudopotential on this center.
   11          6
                                   No pseudopotential on this center.
   12          1
                                   No pseudopotential on this center.
   13          1
                                   No pseudopotential on this center.
   14          1
                                   No pseudopotential on this center.
   15          7
                                   No pseudopotential on this center.
   16          8
                                   No pseudopotential on this center.
   17          8
                                   No pseudopotential on this center.
   18          7
                                   No pseudopotential on this center.
   19          6
                                   No pseudopotential on this center.
   20          6
                                   No pseudopotential on this center.
   21          6
                                   No pseudopotential on this center.
   22          8
                                   No pseudopotential on this center.
   23          6
                                   No pseudopotential on this center.
   24          1
                                   No pseudopotential on this center.
   25          1
                                   No pseudopotential on this center.
   26          1
                                   No pseudopotential on this center.
   27          6
                                   No pseudopotential on this center.
   28          1
                                   No pseudopotential on this center.
   29          1
                                   No pseudopotential on this center.
   30          1
                                   No pseudopotential on this center.
   31          7
                                   No pseudopotential on this center.
   32          8
                                   No pseudopotential on this center.
   33          8
                                   No pseudopotential on this center.
   34         17
                                   No pseudopotential on this center.
   35          1
                                   No pseudopotential on this center.
   36          8
                                   No pseudopotential on this center.
   37          1
                                   No pseudopotential on this center.
 ======================================================================================================
 There are   441 symmetry adapted cartesian basis functions of A   symmetry.
 There are   414 symmetry adapted basis functions of A   symmetry.
   414 basis functions,   725 primitive gaussians,   441 cartesian basis functions
    96 alpha electrons       96 beta electrons
       nuclear repulsion energy      2495.6222709224 Hartrees.
 NAtoms=   37 NActive=   37 NUniq=   37 SFac= 1.00D+00 NAtFMM=   60 NAOKFM=F Big=F
 Integral buffers will be    131072 words long.
 Raffenetti 2 integral format.
 Two-electron integral symmetry is turned on.
 One-electron integrals computed using PRISM.
   1 Symmetry operations used in ECPInt.
 ECPInt:  NShTT=   17766 NPrTT=   64971 LenC2=   15683 LenP2D=   39114.
 LDataN:  DoStor=T MaxTD1= 8 Len=  415
 Number of processors reduced to  29 by ecpmxn.
 NBasis=   414 RedAO= T EigKep=  5.49D-04  NBF=   414
 NBsUse=   414 1.00D-06 EigRej= -1.00D+00 NBFU=   414
 Defaulting to unpruned grid for atomic number  78.
 ExpMin= 4.90D-02 ExpMax= 1.04D+04 ExpMxC= 1.57D+03 IAcc=3 IRadAn=         5 AccDes= 0.00D+00
 Harris functional with IExCor=  402 and IRadAn=       5 diagonalized for initial guess.
 HarFok:  IExCor=  402 AccDes= 0.00D+00 IRadAn=         5 IDoV= 1 UseB2=F ITyADJ=14
 ICtDFT=  3500011 ScaDFX=  1.000000  1.000000  1.000000  1.000000
 Defaulting to unpruned grid for atomic number  78.
 FoFCou: FMM=F IPFlag=           0 FMFlag=      100000 FMFlg1=           0
         NFxFlg=           0 DoJE=T BraDBF=F KetDBF=T FulRan=T
         wScrn=  0.000000 ICntrl=       500 IOpCl=  0 I1Cent=   200000004 NGrid=           0
         NMat0=    1 NMatS0=      1 NMatT0=    0 NMatD0=    1 NMtDS0=    0 NMtDT0=    0
 Petite list used in FoFCou.
 Requested convergence on RMS density matrix=1.00D-08 within  32 cycles.
 Requested convergence on MAX density matrix=1.00D-06.
 Requested convergence on             energy=1.00D-06.
 No special actions if energy rises.
 Defaulting to unpruned grid for atomic number  78.
 Defaulting to unpruned grid for atomic number  78.
 Defaulting to unpruned grid for atomic number  78.
 Defaulting to unpruned grid for atomic number  78.
 Defaulting to unpruned grid for atomic number  78.
 Defaulting to unpruned grid for atomic number  78.
 Defaulting to unpruned grid for atomic number  78.
 Defaulting to unpruned grid for atomic number  78.
 Defaulting to unpruned grid for atomic number  78.
 Defaulting to unpruned grid for atomic number  78.
 Defaulting to unpruned grid for atomic number  78.
 Defaulting to unpruned grid for atomic number  78.
 Defaulting to unpruned grid for atomic number  78.
 Defaulting to unpruned grid for atomic number  78.
 Defaulting to unpruned grid for atomic number  78.
 Defaulting to unpruned grid for atomic number  78.
 Defaulting to unpruned grid for atomic number  78.
 Defaulting to unpruned grid for atomic number  78.
 Defaulting to unpruned grid for atomic number  78.
 Defaulting to unpruned grid for atomic number  78.
 Defaulting to unpruned grid for atomic number  78.
 Defaulting to unpruned grid for atomic number  78.
 Defaulting to unpruned grid for atomic number  78.
 Defaulting to unpruned grid for atomic number  78.
 Defaulting to unpruned grid for atomic number  78.
 Defaulting to unpruned grid for atomic number  78.
 Defaulting to unpruned grid for atomic number  78.
 Defaulting to unpruned grid for atomic number  78.
 Defaulting to unpruned grid for atomic number  78.
 Defaulting to unpruned grid for atomic number  78.
 Defaulting to unpruned grid for atomic number  78.
 Defaulting to unpruned grid for atomic number  78.
 Defaulting to unpruned grid for atomic number  78.
 Defaulting to unpruned grid for atomic number  78.
 Defaulting to unpruned grid for atomic number  78.
 Defaulting to unpruned grid for atomic number  78.
 Defaulting to unpruned grid for atomic number  78.
 Defaulting to unpruned grid for atomic number  78.
 Defaulting to unpruned grid for atomic number  78.
 Defaulting to unpruned grid for atomic number  78.
 Defaulting to unpruned grid for atomic number  78.
 Defaulting to unpruned grid for atomic number  78.
 Defaulting to unpruned grid for atomic number  78.
 Defaulting to unpruned grid for atomic number  78.
 Defaulting to unpruned grid for atomic number  78.
 Defaulting to unpruned grid for atomic number  78.
 Defaulting to unpruned grid for atomic number  78.
 Defaulting to unpruned grid for atomic number  78.
 EnCoef did     3 forward-backward iterations
 EnCoef did   100 forward-backward iterations
 EnCoef did     4 forward-backward iterations
 EnCoef did     5 forward-backward iterations
 Restarting incremental Fock formation.
 SCF Done:  E(RB3LYP) =  -1713.23379570     A.U. after   21 cycles
            NFock= 21  Conv=0.53D-08     -V/T= 2.0550
 QCSCF skips out because SCF is already converged.
 DoSCS=F DFT=T ScalE2(SS,OS)=  1.000000  1.000000
 Range of M.O.s used for correlation:     1   414
 NBasis=   414 NAE=    96 NBE=    96 NFC=     0 NFV=     0
 NROrb=    414 NOA=    96 NOB=    96 NVA=   318 NVB=   318
 PrsmSu:  requested number of processors reduced to:  45 ShMem   1 Linda.
 PrsmSu:  requested number of processors reduced to:  26 ShMem   1 Linda.
   1 Symmetry operations used in ECPInt.
 ECPInt:  NShTT=   17766 NPrTT=   64971 LenC2=   15683 LenP2D=   39114.
 LDataN:  DoStor=T MaxTD1= 9 Len=  602
 Number of processors reduced to   5 by ecpmxn.
 Symmetrizing basis deriv contribution to polar:
 IMax=3 JMax=2 DiffMx= 0.00D+00
 G2DrvN: will do    13 centers at a time, making    3 passes.
 Calling FoFCou, ICntrl=  3107 FMM=F I1Cent=   0 AccDes= 0.00D+00.
 Defaulting to unpruned grid for atomic number  78.
 Defaulting to unpruned grid for atomic number  78.
 Defaulting to unpruned grid for atomic number  78.
 Defaulting to unpruned grid for atomic number  78.
 Defaulting to unpruned grid for atomic number  78.
 Defaulting to unpruned grid for atomic number  78.
 Defaulting to unpruned grid for atomic number  78.
 Defaulting to unpruned grid for atomic number  78.
 Defaulting to unpruned grid for atomic number  78.
 Defaulting to unpruned grid for atomic number  78.
 Defaulting to unpruned grid for atomic number  78.
 Defaulting to unpruned grid for atomic number  78.
 Defaulting to unpruned grid for atomic number  78.
 Defaulting to unpruned grid for atomic number  78.
 Defaulting to unpruned grid for atomic number  78.
 Defaulting to unpruned grid for atomic number  78.
 Defaulting to unpruned grid for atomic number  78.
 Defaulting to unpruned grid for atomic number  78.
 Defaulting to unpruned grid for atomic number  78.
 Defaulting to unpruned grid for atomic number  78.
 Defaulting to unpruned grid for atomic number  78.
 Defaulting to unpruned grid for atomic number  78.
 Defaulting to unpruned grid for atomic number  78.
 Defaulting to unpruned grid for atomic number  78.
 Defaulting to unpruned grid for atomic number  78.
 Defaulting to unpruned grid for atomic number  78.
 Defaulting to unpruned grid for atomic number  78.
 Defaulting to unpruned grid for atomic number  78.
 Defaulting to unpruned grid for atomic number  78.
 Defaulting to unpruned grid for atomic number  78.
 Defaulting to unpruned grid for atomic number  78.
 Defaulting to unpruned grid for atomic number  78.
 Defaulting to unpruned grid for atomic number  78.
 Defaulting to unpruned grid for atomic number  78.
 Defaulting to unpruned grid for atomic number  78.
 Defaulting to unpruned grid for atomic number  78.
 Defaulting to unpruned grid for atomic number  78.
 Defaulting to unpruned grid for atomic number  78.
 Defaulting to unpruned grid for atomic number  78.
 Defaulting to unpruned grid for atomic number  78.
 Defaulting to unpruned grid for atomic number  78.
 Defaulting to unpruned grid for atomic number  78.
 Defaulting to unpruned grid for atomic number  78.
 Defaulting to unpruned grid for atomic number  78.
 Defaulting to unpruned grid for atomic number  78.
 Defaulting to unpruned grid for atomic number  78.
 Defaulting to unpruned grid for atomic number  78.
 Defaulting to unpruned grid for atomic number  78.
 Calling FoFCou, ICntrl=  3107 FMM=F I1Cent=   0 AccDes= 0.00D+00.
 Calling FoFCou, ICntrl=  3107 FMM=F I1Cent=   0 AccDes= 0.00D+00.
 End of G2Drv F.D. properties file   721 does not exist.
 End of G2Drv F.D. properties file   722 does not exist.
 End of G2Drv F.D. properties file   788 does not exist.
          IDoAtm=0000000111011100000000011101110000101
          Differentiating once with respect to nuclear coordinates.
 Defaulting to unpruned grid for atomic number  78.
 CalDSu exits because no D1Ps are significant.
 Defaulting to unpruned grid for atomic number  78.
 Defaulting to unpruned grid for atomic number  78.
 Defaulting to unpruned grid for atomic number  78.
 Defaulting to unpruned grid for atomic number  78.
 Defaulting to unpruned grid for atomic number  78.
 Defaulting to unpruned grid for atomic number  78.
 Defaulting to unpruned grid for atomic number  78.
 Defaulting to unpruned grid for atomic number  78.
 Defaulting to unpruned grid for atomic number  78.
 Defaulting to unpruned grid for atomic number  78.
 Defaulting to unpruned grid for atomic number  78.
 Defaulting to unpruned grid for atomic number  78.
 Defaulting to unpruned grid for atomic number  78.
 Defaulting to unpruned grid for atomic number  78.
 Defaulting to unpruned grid for atomic number  78.
 Defaulting to unpruned grid for atomic number  78.
 Defaulting to unpruned grid for atomic number  78.
 Defaulting to unpruned grid for atomic number  78.
 Defaulting to unpruned grid for atomic number  78.
 Defaulting to unpruned grid for atomic number  78.
 Defaulting to unpruned grid for atomic number  78.
 Defaulting to unpruned grid for atomic number  78.
 Defaulting to unpruned grid for atomic number  78.
 Defaulting to unpruned grid for atomic number  78.
 Defaulting to unpruned grid for atomic number  78.
 Defaulting to unpruned grid for atomic number  78.
 Defaulting to unpruned grid for atomic number  78.
 Defaulting to unpruned grid for atomic number  78.
 Defaulting to unpruned grid for atomic number  78.
 Defaulting to unpruned grid for atomic number  78.
 Defaulting to unpruned grid for atomic number  78.
 Defaulting to unpruned grid for atomic number  78.
 Defaulting to unpruned grid for atomic number  78.
 Defaulting to unpruned grid for atomic number  78.
 Defaulting to unpruned grid for atomic number  78.
 Defaulting to unpruned grid for atomic number  78.
 Defaulting to unpruned grid for atomic number  78.
 Defaulting to unpruned grid for atomic number  78.
 Defaulting to unpruned grid for atomic number  78.
 Defaulting to unpruned grid for atomic number  78.
 Defaulting to unpruned grid for atomic number  78.
 Defaulting to unpruned grid for atomic number  78.
 Defaulting to unpruned grid for atomic number  78.
 Defaulting to unpruned grid for atomic number  78.
 Defaulting to unpruned grid for atomic number  78.
 Defaulting to unpruned grid for atomic number  78.
 Defaulting to unpruned grid for atomic number  78.
 Defaulting to unpruned grid for atomic number  78.
          There are    45 degrees of freedom in the 1st order CPHF.  IDoFFX=6 NUNeed=     0.
     42 vectors produced by pass  0 Test12= 6.78D-14 2.22D-09 XBig12= 2.80D-02 2.97D-02.
 AX will form    14 AO Fock derivatives at one time.
     42 vectors produced by pass  1 Test12= 6.78D-14 2.22D-09 XBig12= 4.69D-03 1.57D-02.
     42 vectors produced by pass  2 Test12= 6.78D-14 2.22D-09 XBig12= 2.75D-04 2.80D-03.
     42 vectors produced by pass  3 Test12= 6.78D-14 2.22D-09 XBig12= 9.12D-06 4.88D-04.
     42 vectors produced by pass  4 Test12= 6.78D-14 2.22D-09 XBig12= 1.14D-07 5.36D-05.
     42 vectors produced by pass  5 Test12= 6.78D-14 2.22D-09 XBig12= 9.57D-10 4.28D-06.
     42 vectors produced by pass  6 Test12= 6.78D-14 2.22D-09 XBig12= 8.56D-12 5.41D-07.
     30 vectors produced by pass  7 Test12= 6.78D-14 2.22D-09 XBig12= 4.16D-14 2.28D-08.
 InvSVY:  IOpt=1 It=  1 EMax= 1.67D-16
 Solved reduced A of dimension   324 with    45 vectors.
 End of Minotr F.D. properties file   721 does not exist.
 End of Minotr F.D. properties file   722 does not exist.
 End of Minotr F.D. properties file   788 does not exist.
 SCF density gives NOpUse=  1 NOpAll=  1.

 **********************************************************************

            Population analysis using the SCF Density.

 **********************************************************************

 Orbital symmetries:
 BldTbl:  Degeneracy threshold= 1.00D-02
       Occupied  (A) (A) (A) (A) (A) (A) (A) (A) (A) (A) (A) (A)
                 (A) (A) (A) (A) (A) (A) (A) (A) (A) (A) (A) (A)
                 (A) (A) (A) (A) (A) (A) (A) (A) (A) (A) (A) (A)
                 (A) (A) (A) (A) (A) (A) (A) (A) (A) (A) (A) (A)
                 (A) (A) (A) (A) (A) (A) (A) (A) (A) (A) (A) (A)
                 (A) (A) (A) (A) (A) (A) (A) (A) (A) (A) (A) (A)
                 (A) (A) (A) (A) (A) (A) (A) (A) (A) (A) (A) (A)
                 (A) (A) (A) (A) (A) (A) (A) (A) (A) (A) (A) (A)
       Virtual   (A) (A) (A) (A) (A) (A) (A) (A) (A) (A) (A) (A)
                 (A) (A) (A) (A) (A) (A) (A) (A) (A) (A) (A) (A)
                 (A) (A) (A) (A) (A) (A) (A) (A) (A) (A) (A) (A)
                 (A) (A) (A) (A) (A) (A) (A) (A) (A) (A) (A) (A)
                 (A) (A) (A) (A) (A) (A) (A) (A) (A) (A) (A) (A)
                 (A) (A) (A) (A) (A) (A) (A) (A) (A) (A) (A) (A)
                 (A) (A) (A) (A) (A) (A) (A) (A) (A) (A) (A) (A)
                 (A) (A) (A) (A) (A) (A) (A) (A) (A) (A) (A) (A)
                 (A) (A) (A) (A) (A) (A) (A) (A) (A) (A) (A) (A)
                 (A) (A) (A) (A) (A) (A) (A) (A) (A) (A) (A) (A)
                 (A) (A) (A) (A) (A) (A) (A) (A) (A) (A) (A) (A)
                 (A) (A) (A) (A) (A) (A) (A) (A) (A) (A) (A) (A)
                 (A) (A) (A) (A) (A) (A) (A) (A) (A) (A) (A) (A)
                 (A) (A) (A) (A) (A) (A) (A) (A) (A) (A) (A) (A)
                 (A) (A) (A) (A) (A) (A) (A) (A) (A) (A) (A) (A)
                 (A) (A) (A) (A) (A) (A) (A) (A) (A) (A) (A) (A)
                 (A) (A) (A) (A) (A) (A) (A) (A) (A) (A) (A) (A)
                 (A) (A) (A) (A) (A) (A) (A) (A) (A) (A) (A) (A)
                 (A) (A) (A) (A) (A) (A) (A) (A) (A) (A) (A) (A)
                 (A) (A) (A) (A) (A) (A) (A) (A) (A) (A) (A) (A)
                 (A) (A) (A) (A) (A) (A) (A) (A) (A) (A) (A) (A)
                 (A) (A) (A) (A) (A) (A) (A) (A) (A) (A) (A) (A)
                 (A) (A) (A) (A) (A) (A) (A) (A) (A) (A) (A) (A)
                 (A) (A) (A) (A) (A) (A) (A) (A) (A) (A) (A) (A)
                 (A) (A) (A) (A) (A) (A) (A) (A) (A) (A) (A) (A)
                 (A) (A) (A) (A) (A) (A) (A) (A) (A) (A) (A) (A)
                 (A) (A) (A) (A) (A) (A)
 The electronic state is 1-A.
 Alpha  occ. eigenvalues -- -101.56893 -19.42638 -19.40742 -19.38605 -19.29936
 Alpha  occ. eigenvalues --  -19.29859 -19.28811 -19.28719 -14.70516 -14.69393
 Alpha  occ. eigenvalues --  -14.60198 -14.59651 -10.46164 -10.44618 -10.43801
 Alpha  occ. eigenvalues --  -10.42677 -10.41102 -10.39638 -10.35750 -10.35736
 Alpha  occ. eigenvalues --  -10.34889 -10.33995  -9.52083  -7.28858  -7.28082
 Alpha  occ. eigenvalues --   -7.28057  -4.10963  -2.36836  -2.36157  -2.32172
 Alpha  occ. eigenvalues --   -1.36202  -1.35272  -1.35073  -1.33313  -1.21732
 Alpha  occ. eigenvalues --   -1.18358  -1.17340  -1.08927  -1.07415  -1.02079
 Alpha  occ. eigenvalues --   -1.00521  -0.92326  -0.90820  -0.89668  -0.88377
 Alpha  occ. eigenvalues --   -0.87438  -0.86707  -0.85508  -0.78593  -0.77100
 Alpha  occ. eigenvalues --   -0.75211  -0.74261  -0.73995  -0.70302  -0.69331
 Alpha  occ. eigenvalues --   -0.68915  -0.68528  -0.67311  -0.67082  -0.66503
 Alpha  occ. eigenvalues --   -0.65794  -0.64089  -0.63903  -0.62690  -0.61561
 Alpha  occ. eigenvalues --   -0.60062  -0.59724  -0.59596  -0.59275  -0.58472
 Alpha  occ. eigenvalues --   -0.58084  -0.57897  -0.57422  -0.56293  -0.56166
 Alpha  occ. eigenvalues --   -0.55687  -0.54786  -0.54705  -0.53256  -0.51012
 Alpha  occ. eigenvalues --   -0.49007  -0.46758  -0.46402  -0.45604  -0.45064
 Alpha  occ. eigenvalues --   -0.44787  -0.44511  -0.44001  -0.43787  -0.43452
 Alpha  occ. eigenvalues --   -0.42959  -0.42024  -0.41908  -0.40736  -0.37374
 Alpha  occ. eigenvalues --   -0.36776
 Alpha virt. eigenvalues --   -0.22950  -0.21492  -0.20829  -0.20470  -0.19246
 Alpha virt. eigenvalues --   -0.15477  -0.12136  -0.10987  -0.09754  -0.09258
 Alpha virt. eigenvalues --   -0.08397  -0.07545  -0.06327  -0.05533  -0.04636
 Alpha virt. eigenvalues --   -0.04139  -0.03623  -0.02977  -0.02042  -0.00959
 Alpha virt. eigenvalues --   -0.00142  -0.00018   0.01082   0.01487   0.01732
 Alpha virt. eigenvalues --    0.02011   0.03230   0.03795   0.05659   0.06214
 Alpha virt. eigenvalues --    0.07053   0.07137   0.07962   0.08941   0.09756
 Alpha virt. eigenvalues --    0.10838   0.11905   0.12948   0.13987   0.15218
 Alpha virt. eigenvalues --    0.16632   0.17312   0.20206   0.20912   0.22099
 Alpha virt. eigenvalues --    0.23503   0.25225   0.25425   0.27256   0.27745
 Alpha virt. eigenvalues --    0.28969   0.29401   0.30125   0.30418   0.30923
 Alpha virt. eigenvalues --    0.31661   0.32163   0.32896   0.33374   0.34488
 Alpha virt. eigenvalues --    0.35315   0.36849   0.37435   0.38175   0.39469
 Alpha virt. eigenvalues --    0.40180   0.41213   0.41369   0.42497   0.42798
 Alpha virt. eigenvalues --    0.43502   0.44511   0.44944   0.45960   0.46825
 Alpha virt. eigenvalues --    0.47140   0.47969   0.49298   0.49642   0.50145
 Alpha virt. eigenvalues --    0.50483   0.50729   0.50940   0.51870   0.51914
 Alpha virt. eigenvalues --    0.52342   0.52720   0.53139   0.53858   0.54125
 Alpha virt. eigenvalues --    0.54319   0.54866   0.55736   0.56019   0.57315
 Alpha virt. eigenvalues --    0.58163   0.59062   0.59262   0.60914   0.62255
 Alpha virt. eigenvalues --    0.63554   0.65572   0.66201   0.68183   0.69894
 Alpha virt. eigenvalues --    0.70428   0.71437   0.72718   0.73476   0.74659
 Alpha virt. eigenvalues --    0.74953   0.75411   0.75994   0.76681   0.77792
 Alpha virt. eigenvalues --    0.78724   0.78955   0.79994   0.80350   0.80989
 Alpha virt. eigenvalues --    0.83002   0.83827   0.84096   0.85383   0.86972
 Alpha virt. eigenvalues --    0.87082   0.88509   0.89583   0.90157   0.90871
 Alpha virt. eigenvalues --    0.91208   0.91777   0.92368   0.93703   0.94595
 Alpha virt. eigenvalues --    0.94927   0.96518   0.96954   0.98639   0.99752
 Alpha virt. eigenvalues --    1.01224   1.01949   1.02466   1.02838   1.03595
 Alpha virt. eigenvalues --    1.05586   1.07631   1.08979   1.09431   1.10129
 Alpha virt. eigenvalues --    1.11173   1.15701   1.17376   1.18074   1.18577
 Alpha virt. eigenvalues --    1.19125   1.20717   1.21593   1.23401   1.23656
 Alpha virt. eigenvalues --    1.24481   1.25644   1.26499   1.26969   1.28802
 Alpha virt. eigenvalues --    1.31728   1.33060   1.33802   1.34743   1.35213
 Alpha virt. eigenvalues --    1.35948   1.36380   1.37046   1.37363   1.38395
 Alpha virt. eigenvalues --    1.38607   1.38773   1.41141   1.41792   1.42575
 Alpha virt. eigenvalues --    1.43004   1.44155   1.45260   1.46580   1.47249
 Alpha virt. eigenvalues --    1.49299   1.51167   1.54602   1.55598   1.57787
 Alpha virt. eigenvalues --    1.59435   1.60478   1.61363   1.62511   1.62975
 Alpha virt. eigenvalues --    1.63173   1.63750   1.63802   1.64383   1.64752
 Alpha virt. eigenvalues --    1.65504   1.65922   1.66742   1.66918   1.67477
 Alpha virt. eigenvalues --    1.69030   1.71081   1.71343   1.72702   1.73049
 Alpha virt. eigenvalues --    1.74852   1.75201   1.75508   1.78759   1.81772
 Alpha virt. eigenvalues --    1.83144   1.84366   1.85107   1.85795   1.86955
 Alpha virt. eigenvalues --    1.88748   1.89760   1.90623   1.91907   1.93044
 Alpha virt. eigenvalues --    1.96279   1.97337   1.99221   1.99783   2.04106
 Alpha virt. eigenvalues --    2.05842   2.06165   2.09562   2.10945   2.11592
 Alpha virt. eigenvalues --    2.13617   2.13854   2.15780   2.18005   2.18406
 Alpha virt. eigenvalues --    2.20095   2.20556   2.21107   2.22076   2.22603
 Alpha virt. eigenvalues --    2.24606   2.25739   2.26614   2.27303   2.27646
 Alpha virt. eigenvalues --    2.29321   2.30815   2.31927   2.33246   2.35194
 Alpha virt. eigenvalues --    2.35580   2.38938   2.41425   2.43689   2.47232
 Alpha virt. eigenvalues --    2.48266   2.50305   2.50943   2.54011   2.54867
 Alpha virt. eigenvalues --    2.55132   2.55530   2.55949   2.56385   2.57338
 Alpha virt. eigenvalues --    2.58098   2.60093   2.61856   2.63938   2.65311
 Alpha virt. eigenvalues --    2.66644   2.68617   2.70654   2.70683   2.72666
 Alpha virt. eigenvalues --    2.73817   2.76009   2.76869   2.77367   2.77609
 Alpha virt. eigenvalues --    2.78892   2.79429   2.80646   2.81906   2.82093
 Alpha virt. eigenvalues --    2.83222   2.87226   2.91794   2.92754   2.93402
 Alpha virt. eigenvalues --    2.93816   2.98861   3.00459   3.07144   3.08588
 Alpha virt. eigenvalues --    3.13479   3.13808   3.15035   3.15228   3.21851
 Alpha virt. eigenvalues --    3.23487   3.24542   3.33017   3.34140   3.52986
 Alpha virt. eigenvalues --    3.54298   3.58434   3.61470   3.63140   3.66892
 Alpha virt. eigenvalues --    3.68213  50.68305 279.97078
          Condensed to atoms (all electrons):
               1          2          3          4          5          6
     1  Pt  17.257714   0.055374  -0.063273  -0.003566   0.009536  -0.004673
     2  N    0.055374   6.719927   0.440915  -0.123293  -0.004366   0.168701
     3  C   -0.063273   0.440915   5.124808  -0.040416   0.221285  -0.106705
     4  C   -0.003566  -0.123293  -0.040416   5.107021   0.271073   0.340912
     5  C    0.009536  -0.004366   0.221285   0.271073   5.446091  -0.033023
     6  O   -0.004673   0.168701  -0.106705   0.340912  -0.033023   7.807181
     7  C   -0.000731   0.004574   0.008813   0.442626  -0.049862  -0.035231
     8  H    0.000343   0.000119  -0.000782  -0.010979   0.016304  -0.000961
     9  H   -0.000008  -0.000197   0.001204   0.009821  -0.013697   0.001943
    10  H    0.000146   0.000055   0.000057   0.001644  -0.007435   0.000214
    11  C   -0.000518   0.001209   0.000652   0.000449  -0.000664  -0.000769
    12  H   -0.001761   0.000198   0.000034  -0.000012  -0.000004   0.000015
    13  H   -0.000092  -0.000490   0.001735   0.000489  -0.000126  -0.000065
    14  H   -0.018173   0.001437   0.000689   0.000457  -0.000691   0.002767
    15  N   -0.000130   0.003431  -0.027863  -0.034406   0.292352   0.002201
    16  O    0.000062   0.000091  -0.027460   0.003414  -0.053311  -0.000022
    17  O    0.000073   0.000009   0.002723  -0.024929  -0.059308   0.000005
    18  N    0.125716  -0.005455  -0.000966   0.000023  -0.000083   0.000081
    19  C   -0.076925  -0.002802   0.004916  -0.000062  -0.000162  -0.000273
    20  C   -0.005844   0.000008   0.000048  -0.000001   0.000011   0.000000
    21  C    0.015586  -0.000306  -0.000571   0.000011  -0.000030  -0.000007
    22  O   -0.009453   0.000030  -0.000067   0.000000  -0.000006  -0.000000
    23  C   -0.000775  -0.000000  -0.000000   0.000000   0.000000   0.000000
    24  H    0.000050  -0.000000   0.000000  -0.000000   0.000000  -0.000000
    25  H    0.000042   0.000000  -0.000000   0.000000  -0.000000   0.000000
    26  H    0.000348   0.000000   0.000001   0.000000  -0.000000  -0.000000
    27  C    0.004424  -0.039522   0.436232   0.012802  -0.042939   0.003273
    28  H    0.001214   0.001183   0.007736   0.000202  -0.006519  -0.000087
    29  H   -0.019201  -0.010234  -0.005759  -0.000315   0.013661  -0.000236
    30  H   -0.001170   0.002301   0.012370   0.000657  -0.011715  -0.000061
    31  N    0.000588  -0.000000  -0.000003   0.000000  -0.000000  -0.000000
    32  O    0.000025   0.000000  -0.000002  -0.000000   0.000000  -0.000000
    33  O    0.000040   0.000000   0.000000   0.000000  -0.000000  -0.000000
    34  Cl   0.320118  -0.002165  -0.000050  -0.000002   0.000000   0.000009
    35  H   -0.032597  -0.000065   0.000109   0.000051  -0.000814   0.003234
    36  O    0.163468  -0.007151  -0.001067   0.000295  -0.000127  -0.001282
    37  H   -0.030412  -0.001486  -0.000188  -0.000008  -0.000002   0.001713
               7          8          9         10         11         12
     1  Pt  -0.000731   0.000343  -0.000008   0.000146  -0.000518  -0.001761
     2  N    0.004574   0.000119  -0.000197   0.000055   0.001209   0.000198
     3  C    0.008813  -0.000782   0.001204   0.000057   0.000652   0.000034
     4  C    0.442626  -0.010979   0.009821   0.001644   0.000449  -0.000012
     5  C   -0.049862   0.016304  -0.013697  -0.007435  -0.000664  -0.000004
     6  O   -0.035231  -0.000961   0.001943   0.000214  -0.000769   0.000015
     7  C    4.397639   0.358128   0.375260   0.372861   0.000011  -0.000000
     8  H    0.358128   0.603791  -0.013818  -0.013087  -0.000004   0.000000
     9  H    0.375260  -0.013818   0.548237  -0.010550  -0.000000   0.000000
    10  H    0.372861  -0.013087  -0.010550   0.566194  -0.000000  -0.000000
    11  C    0.000011  -0.000004  -0.000000  -0.000000   4.413969   0.360611
    12  H   -0.000000   0.000000   0.000000  -0.000000   0.360611   0.563200
    13  H   -0.000002  -0.000003  -0.000002   0.000000   0.365544  -0.010756
    14  H   -0.000018   0.000014  -0.000001  -0.000001   0.361436  -0.011077
    15  N   -0.005747   0.000059  -0.000854   0.000392  -0.000002   0.000000
    16  O    0.000196   0.000007  -0.000027  -0.000002   0.000000   0.000000
    17  O    0.014073   0.000685   0.009409   0.001558   0.000000   0.000000
    18  N   -0.000000   0.000000  -0.000000   0.000000  -0.039583   0.002523
    19  C    0.000001   0.000000   0.000000  -0.000000   0.439813   0.014153
    20  C   -0.000000   0.000000   0.000000  -0.000000   0.013160   0.000758
    21  C    0.000000  -0.000000  -0.000000   0.000000  -0.044480  -0.009740
    22  O    0.000000  -0.000000  -0.000000   0.000000   0.003143  -0.000091
    23  C    0.000000   0.000000  -0.000000  -0.000000  -0.000266   0.000008
    24  H    0.000000  -0.000000   0.000000  -0.000000   0.000008   0.000002
    25  H   -0.000000  -0.000000  -0.000000   0.000000   0.000010  -0.000005
    26  H    0.000000   0.000000  -0.000000   0.000000  -0.000002  -0.000000
    27  C   -0.000265  -0.000002   0.000009   0.000007  -0.000410   0.000014
    28  H    0.000008  -0.000000  -0.000004   0.000001  -0.000077  -0.000008
    29  H   -0.000001  -0.000001  -0.000000  -0.000000   0.000198  -0.000006
    30  H    0.000006  -0.000000   0.000003  -0.000004   0.000001   0.000000
    31  N   -0.000000   0.000000  -0.000000   0.000000  -0.007848  -0.000554
    32  O    0.000000   0.000000  -0.000000   0.000000   0.015192   0.008102
    33  O   -0.000000   0.000000   0.000000  -0.000000   0.000197  -0.000035
    34  Cl   0.000000  -0.000000  -0.000000  -0.000000  -0.000049  -0.000005
    35  H    0.000055  -0.000015  -0.000002   0.000022  -0.000001  -0.000000
    36  O    0.000008  -0.000007  -0.000000  -0.000001   0.000020  -0.000000
    37  H    0.000005   0.000025  -0.000001   0.000001   0.000000   0.000000
              13         14         15         16         17         18
     1  Pt  -0.000092  -0.018173  -0.000130   0.000062   0.000073   0.125716
     2  N   -0.000490   0.001437   0.003431   0.000091   0.000009  -0.005455
     3  C    0.001735   0.000689  -0.027863  -0.027460   0.002723  -0.000966
     4  C    0.000489   0.000457  -0.034406   0.003414  -0.024929   0.000023
     5  C   -0.000126  -0.000691   0.292352  -0.053311  -0.059308  -0.000083
     6  O   -0.000065   0.002767   0.002201  -0.000022   0.000005   0.000081
     7  C   -0.000002  -0.000018  -0.005747   0.000196   0.014073  -0.000000
     8  H   -0.000003   0.000014   0.000059   0.000007   0.000685   0.000000
     9  H   -0.000002  -0.000001  -0.000854  -0.000027   0.009409  -0.000000
    10  H    0.000000  -0.000001   0.000392  -0.000002   0.001558   0.000000
    11  C    0.365544   0.361436  -0.000002   0.000000   0.000000  -0.039583
    12  H   -0.010756  -0.011077   0.000000   0.000000   0.000000   0.002523
    13  H    0.598235  -0.016983  -0.000010  -0.000003  -0.000000   0.000569
    14  H   -0.016983   0.620894  -0.000004   0.000000   0.000000  -0.007442
    15  N   -0.000010  -0.000004   5.944263   0.283829   0.294577  -0.000000
    16  O   -0.000003   0.000000   0.283829   8.072973  -0.090863   0.000000
    17  O   -0.000000   0.000000   0.294577  -0.090863   8.067515   0.000000
    18  N    0.000569  -0.007442  -0.000000   0.000000   0.000000   6.579333
    19  C    0.004205  -0.007639   0.000001  -0.000000   0.000000   0.421239
    20  C    0.000147  -0.000228   0.000000   0.000000   0.000000  -0.120643
    21  C   -0.007459   0.012727  -0.000000  -0.000000  -0.000000   0.002309
    22  O   -0.000053  -0.000176  -0.000000  -0.000000  -0.000000   0.199140
    23  C    0.000006   0.000001  -0.000000   0.000000   0.000000   0.004732
    24  H   -0.000004  -0.000000   0.000000  -0.000000  -0.000000  -0.000102
    25  H    0.000001  -0.000000   0.000000   0.000000   0.000000  -0.000115
    26  H   -0.000000  -0.000001  -0.000000  -0.000000   0.000000   0.000130
    27  C   -0.000450   0.000065  -0.007760   0.015648   0.000208   0.001196
    28  H    0.000093   0.000013  -0.000048   0.004095   0.000004  -0.000577
    29  H    0.000100   0.000118   0.000066   0.000880   0.000006  -0.000274
    30  H   -0.000004  -0.000001   0.000057   0.006620  -0.000072   0.000109
    31  N    0.000202   0.000028  -0.000000   0.000000  -0.000000   0.003463
    32  O    0.003408   0.000875   0.000000  -0.000000  -0.000000   0.000093
    33  O   -0.000005   0.000006  -0.000000  -0.000000  -0.000000   0.000007
    34  Cl  -0.000002  -0.000461   0.000000  -0.000000  -0.000000  -0.003153
    35  H    0.000001  -0.000047  -0.000000   0.000000   0.000000   0.000194
    36  O   -0.000001  -0.000297  -0.000000  -0.000000  -0.000000  -0.001338
    37  H   -0.000000  -0.000064  -0.000000   0.000000   0.000000   0.000215
              19         20         21         22         23         24
     1  Pt  -0.076925  -0.005844   0.015586  -0.009453  -0.000775   0.000050
     2  N   -0.002802   0.000008  -0.000306   0.000030  -0.000000  -0.000000
     3  C    0.004916   0.000048  -0.000571  -0.000067  -0.000000   0.000000
     4  C   -0.000062  -0.000001   0.000011   0.000000   0.000000  -0.000000
     5  C   -0.000162   0.000011  -0.000030  -0.000006   0.000000   0.000000
     6  O   -0.000273   0.000000  -0.000007  -0.000000   0.000000  -0.000000
     7  C    0.000001  -0.000000   0.000000   0.000000   0.000000   0.000000
     8  H    0.000000   0.000000  -0.000000  -0.000000   0.000000  -0.000000
     9  H    0.000000   0.000000  -0.000000  -0.000000  -0.000000   0.000000
    10  H   -0.000000  -0.000000   0.000000   0.000000  -0.000000  -0.000000
    11  C    0.439813   0.013160  -0.044480   0.003143  -0.000266   0.000008
    12  H    0.014153   0.000758  -0.009740  -0.000091   0.000008   0.000002
    13  H    0.004205   0.000147  -0.007459  -0.000053   0.000006  -0.000004
    14  H   -0.007639  -0.000228   0.012727  -0.000176   0.000001  -0.000000
    15  N    0.000001   0.000000  -0.000000  -0.000000  -0.000000   0.000000
    16  O   -0.000000   0.000000  -0.000000  -0.000000   0.000000  -0.000000
    17  O    0.000000   0.000000  -0.000000  -0.000000   0.000000  -0.000000
    18  N    0.421239  -0.120643   0.002309   0.199140   0.004732  -0.000102
    19  C    5.149977  -0.038823   0.221428  -0.106992   0.008620   0.000796
    20  C   -0.038823   5.063766   0.275675   0.345723   0.450885   0.005351
    21  C    0.221428   0.275675   5.435878  -0.026701  -0.054805  -0.012221
    22  O   -0.106992   0.345723  -0.026701   7.739601  -0.035669   0.001373
    23  C    0.008620   0.450885  -0.054805  -0.035669   4.395678   0.373942
    24  H    0.000796   0.005351  -0.012221   0.001373   0.373942   0.570071
    25  H    0.000500   0.005210  -0.008156   0.000984   0.372786  -0.012120
    26  H   -0.000711  -0.007808   0.016120  -0.000557   0.356983  -0.014292
    27  C    0.000595   0.000829  -0.000065  -0.002408   0.000035   0.000009
    28  H    0.000464   0.000418   0.000608  -0.000114  -0.000016  -0.000005
    29  H    0.002176   0.002142  -0.003812   0.008439  -0.000078  -0.000040
    30  H    0.000082  -0.000025  -0.000007   0.000021   0.000000   0.000000
    31  N   -0.029778  -0.032390   0.294522   0.002208  -0.006173  -0.000092
    32  O   -0.027046   0.003118  -0.055645  -0.000021   0.000188  -0.000025
    33  O    0.003148  -0.027542  -0.057869   0.000005   0.015821   0.005064
    34  Cl  -0.002075  -0.000121   0.000093  -0.001764   0.000006  -0.000000
    35  H   -0.000035  -0.000000   0.000002  -0.000002  -0.000000  -0.000000
    36  O   -0.000023   0.000000  -0.000001   0.000005   0.000000  -0.000000
    37  H   -0.000047  -0.000000   0.000001   0.000002  -0.000000   0.000000
              25         26         27         28         29         30
     1  Pt   0.000042   0.000348   0.004424   0.001214  -0.019201  -0.001170
     2  N    0.000000   0.000000  -0.039522   0.001183  -0.010234   0.002301
     3  C   -0.000000   0.000001   0.436232   0.007736  -0.005759   0.012370
     4  C    0.000000   0.000000   0.012802   0.000202  -0.000315   0.000657
     5  C   -0.000000  -0.000000  -0.042939  -0.006519   0.013661  -0.011715
     6  O    0.000000  -0.000000   0.003273  -0.000087  -0.000236  -0.000061
     7  C   -0.000000   0.000000  -0.000265   0.000008  -0.000001   0.000006
     8  H   -0.000000   0.000000  -0.000002  -0.000000  -0.000001  -0.000000
     9  H   -0.000000  -0.000000   0.000009  -0.000004  -0.000000   0.000003
    10  H    0.000000   0.000000   0.000007   0.000001  -0.000000  -0.000004
    11  C    0.000010  -0.000002  -0.000410  -0.000077   0.000198   0.000001
    12  H   -0.000005  -0.000000   0.000014  -0.000008  -0.000006   0.000000
    13  H    0.000001  -0.000000  -0.000450   0.000093   0.000100  -0.000004
    14  H   -0.000000  -0.000001   0.000065   0.000013   0.000118  -0.000001
    15  N    0.000000  -0.000000  -0.007760  -0.000048   0.000066   0.000057
    16  O    0.000000  -0.000000   0.015648   0.004095   0.000880   0.006620
    17  O    0.000000   0.000000   0.000208   0.000004   0.000006  -0.000072
    18  N   -0.000115   0.000130   0.001196  -0.000577  -0.000274   0.000109
    19  C    0.000500  -0.000711   0.000595   0.000464   0.002176   0.000082
    20  C    0.005210  -0.007808   0.000829   0.000418   0.002142  -0.000025
    21  C   -0.008156   0.016120  -0.000065   0.000608  -0.003812  -0.000007
    22  O    0.000984  -0.000557  -0.002408  -0.000114   0.008439   0.000021
    23  C    0.372786   0.356983   0.000035  -0.000016  -0.000078   0.000000
    24  H   -0.012120  -0.014292   0.000009  -0.000005  -0.000040   0.000000
    25  H    0.554951  -0.011706  -0.000001   0.000001   0.000006  -0.000000
    26  H   -0.011706   0.594281  -0.000011  -0.000003   0.000033   0.000000
    27  C   -0.000001  -0.000011   4.420140   0.364613   0.356822   0.362993
    28  H    0.000001  -0.000003   0.364613   0.578396  -0.016798  -0.010094
    29  H    0.000006   0.000033   0.356822  -0.016798   0.620629  -0.012524
    30  H   -0.000000   0.000000   0.362993  -0.010094  -0.012524   0.569499
    31  N   -0.000191   0.000065  -0.000007  -0.000007  -0.000039   0.000000
    32  O   -0.000006   0.000006  -0.000001  -0.000001   0.000002   0.000000
    33  O    0.004228   0.000696  -0.000000  -0.000002   0.000001   0.000000
    34  Cl   0.000000  -0.000017   0.000018  -0.000000  -0.000394   0.000000
    35  H    0.000000  -0.000000  -0.000024   0.000001  -0.000137  -0.000020
    36  O   -0.000000   0.000000  -0.000009  -0.000001  -0.000125  -0.000002
    37  H   -0.000000   0.000000   0.000008  -0.000000  -0.000017  -0.000000
              31         32         33         34         35         36
     1  Pt   0.000588   0.000025   0.000040   0.320118  -0.032597   0.163468
     2  N   -0.000000   0.000000   0.000000  -0.002165  -0.000065  -0.007151
     3  C   -0.000003  -0.000002   0.000000  -0.000050   0.000109  -0.001067
     4  C    0.000000  -0.000000   0.000000  -0.000002   0.000051   0.000295
     5  C   -0.000000   0.000000  -0.000000   0.000000  -0.000814  -0.000127
     6  O   -0.000000  -0.000000  -0.000000   0.000009   0.003234  -0.001282
     7  C   -0.000000   0.000000  -0.000000   0.000000   0.000055   0.000008
     8  H    0.000000   0.000000   0.000000  -0.000000  -0.000015  -0.000007
     9  H   -0.000000  -0.000000   0.000000  -0.000000  -0.000002  -0.000000
    10  H    0.000000   0.000000  -0.000000  -0.000000   0.000022  -0.000001
    11  C   -0.007848   0.015192   0.000197  -0.000049  -0.000001   0.000020
    12  H   -0.000554   0.008102  -0.000035  -0.000005  -0.000000  -0.000000
    13  H    0.000202   0.003408  -0.000005  -0.000002   0.000001  -0.000001
    14  H    0.000028   0.000875   0.000006  -0.000461  -0.000047  -0.000297
    15  N   -0.000000   0.000000  -0.000000   0.000000  -0.000000  -0.000000
    16  O    0.000000  -0.000000  -0.000000  -0.000000   0.000000  -0.000000
    17  O   -0.000000  -0.000000  -0.000000  -0.000000   0.000000  -0.000000
    18  N    0.003463   0.000093   0.000007  -0.003153   0.000194  -0.001338
    19  C   -0.029778  -0.027046   0.003148  -0.002075  -0.000035  -0.000023
    20  C   -0.032390   0.003118  -0.027542  -0.000121  -0.000000   0.000000
    21  C    0.294522  -0.055645  -0.057869   0.000093   0.000002  -0.000001
    22  O    0.002208  -0.000021   0.000005  -0.001764  -0.000002   0.000005
    23  C   -0.006173   0.000188   0.015821   0.000006  -0.000000   0.000000
    24  H   -0.000092  -0.000025   0.005064  -0.000000  -0.000000  -0.000000
    25  H   -0.000191  -0.000006   0.004228   0.000000   0.000000  -0.000000
    26  H    0.000065   0.000006   0.000696  -0.000017  -0.000000   0.000000
    27  C   -0.000007  -0.000001  -0.000000   0.000018  -0.000024  -0.000009
    28  H   -0.000007  -0.000001  -0.000002  -0.000000   0.000001  -0.000001
    29  H   -0.000039   0.000002   0.000001  -0.000394  -0.000137  -0.000125
    30  H    0.000000   0.000000   0.000000   0.000000  -0.000020  -0.000002
    31  N    5.938888   0.286841   0.295281   0.000000   0.000000   0.000000
    32  O    0.286841   8.078144  -0.090385  -0.000000   0.000000  -0.000000
    33  O    0.295281  -0.090385   8.068926  -0.000000   0.000000  -0.000000
    34  Cl   0.000000  -0.000000  -0.000000  16.893018  -0.000372  -0.002887
    35  H    0.000000   0.000000   0.000000  -0.000372   0.460209   0.298035
    36  O    0.000000  -0.000000  -0.000000  -0.002887   0.298035   7.441150
    37  H   -0.000000   0.000000   0.000000  -0.001679  -0.007213   0.318826
              37
     1  Pt  -0.030412
     2  N   -0.001486
     3  C   -0.000188
     4  C   -0.000008
     5  C   -0.000002
     6  O    0.001713
     7  C    0.000005
[...]
 **** Fit       0.078967
 **** Fit       0.073986
 **** Fit       0.070191
 **** Fit       0.067486
 **** Fit       0.065756
 **** Fit       0.064907
 **** Fit       0.064883
 **** Fit       0.065675
 **** Fit       0.067314
 **** Fit       0.068970
 **** Fit       0.072403
 **** Fit       0.076794
 **** Fit       0.082192
 **** Fit       0.088579
 **** Fit       0.095834
 **** Fit       0.107578
 **** Fit       0.098132
 **** Fit       0.089650
 **** Fit       0.082471
 **** Fit       0.076640
 **** Fit       0.072062
 **** Fit       0.068596
 **** Fit       0.066093
 **** Fit       0.064424
 **** Fit       0.063487
 **** Fit       0.063221
 **** Fit       0.063604
 **** Fit       0.064652
 **** Fit       0.066416
 **** Fit       0.068384
 **** Fit       0.071821
 **** Fit       0.076206
 **** Fit       0.081629
 **** Fit       0.088143
 **** Fit       0.095733
 **** Fit       0.109299
 **** Fit       0.098401
 **** Fit       0.089306
 **** Fit       0.081914
 **** Fit       0.076035
 **** Fit       0.071460
 **** Fit       0.067987
 **** Fit       0.065439
 **** Fit       0.063672
 **** Fit       0.062573
 **** Fit       0.062069
 **** Fit       0.062123
 **** Fit       0.062733
 **** Fit       0.063934
 **** Fit       0.065789
 **** Fit       0.068059
 **** Fit       0.071480
 **** Fit       0.075827
 **** Fit       0.081221
 **** Fit       0.087760
 **** Fit       0.095500
 **** Fit       0.109478
 **** Fit       0.097965
 **** Fit       0.088708
 **** Fit       0.081336
 **** Fit       0.075533
 **** Fit       0.071028
 **** Fit       0.067594
 **** Fit       0.065040
 **** Fit       0.063217
 **** Fit       0.062010
 **** Fit       0.061337
 **** Fit       0.061153
 **** Fit       0.061442
 **** Fit       0.062219
 **** Fit       0.063531
 **** Fit       0.065447
 **** Fit       0.067957
 **** Fit       0.071347
 **** Fit       0.075639
 **** Fit       0.080970
 **** Fit       0.087476
 **** Fit       0.095273
 **** Fit       0.108548
 **** Fit       0.097065
 **** Fit       0.087962
 **** Fit       0.080771
 **** Fit       0.075128
 **** Fit       0.070742
 **** Fit       0.067377
 **** Fit       0.064845
 **** Fit       0.062996
 **** Fit       0.061717
 **** Fit       0.060926
 **** Fit       0.060569
 **** Fit       0.060622
 **** Fit       0.061086
 **** Fit       0.061989
 **** Fit       0.063383
 **** Fit       0.065340
 **** Fit       0.068035
 **** Fit       0.071540
 **** Fit       0.075997
 **** Fit       0.081576
 **** Fit       0.088460
 **** Fit       0.096845
 **** Fit       0.117207
 **** Fit       0.103475
 **** Fit       0.092744
 **** Fit       0.084354
 **** Fit       0.077811
 **** Fit       0.072736
 **** Fit       0.068831
 **** Fit       0.065866
 **** Fit       0.063660
 **** Fit       0.062074
 **** Fit       0.061004
 **** Fit       0.060378
 **** Fit       0.060151
 **** Fit       0.060309
 **** Fit       0.060859
 **** Fit       0.061837
 **** Fit       0.063300
 **** Fit       0.065331
 **** Fit       0.068251
 **** Fit       0.071839
 **** Fit       0.076411
 **** Fit       0.082164
 **** Fit       0.089329
 **** Fit       0.098187
 **** Fit       0.110541
 **** Fit       0.098064
 **** Fit       0.088401
 **** Fit       0.080912
 **** Fit       0.075115
 **** Fit       0.070647
 **** Fit       0.067232
 **** Fit       0.064657
 **** Fit       0.062758
 **** Fit       0.061413
 **** Fit       0.060531
 **** Fit       0.060052
 **** Fit       0.059942
 **** Fit       0.060194
 **** Fit       0.060822
 **** Fit       0.061866
 **** Fit       0.063390
 **** Fit       0.065481
 **** Fit       0.068564
 **** Fit       0.072273
 **** Fit       0.077018
 **** Fit       0.083026
 **** Fit       0.090579
 **** Fit       0.108369
 **** Fit       0.096117
 **** Fit       0.086745
 **** Fit       0.079550
 **** Fit       0.074022
 **** Fit       0.069786
 **** Fit       0.066566
 **** Fit       0.064151
 **** Fit       0.062383
 **** Fit       0.061144
 **** Fit       0.060348
 **** Fit       0.059940
 **** Fit       0.059890
 **** Fit       0.060194
 **** Fit       0.060871
 **** Fit       0.061966
 **** Fit       0.063546
 **** Fit       0.065705
 **** Fit       0.068934
 **** Fit       0.072708
 **** Fit       0.077536
 **** Fit       0.083658
 **** Fit       0.091375
 **** Fit       0.105344
 **** Fit       0.093720
 **** Fit       0.084896
 **** Fit       0.078150
 **** Fit       0.072980
 **** Fit       0.069028
 **** Fit       0.066029
 **** Fit       0.063786
 **** Fit       0.062152
 **** Fit       0.061018
 **** Fit       0.060305
 **** Fit       0.059964
 **** Fit       0.059971
 **** Fit       0.060325
 **** Fit       0.061048
 **** Fit       0.062188
 **** Fit       0.063814
 **** Fit       0.066021
 **** Fit       0.069325
 **** Fit       0.073262
 **** Fit       0.078319
 **** Fit       0.084753
 **** Fit       0.097746
 **** Fit       0.087748
 **** Fit       0.080202
 **** Fit       0.074470
 **** Fit       0.070116
 **** Fit       0.066826
 **** Fit       0.064372
 **** Fit       0.062584
 **** Fit       0.061340
 **** Fit       0.060549
 **** Fit       0.060156
 **** Fit       0.060130
 **** Fit       0.060468
 **** Fit       0.061193
 **** Fit       0.062353
 **** Fit       0.064022
 **** Fit       0.066302
 **** Fit       0.069712
 **** Fit       0.073730
 **** Fit       0.078887
 **** Fit       0.085420
 **** Fit       0.101491
 **** Fit       0.090506
 **** Fit       0.082272
 **** Fit       0.076043
 **** Fit       0.071321
 **** Fit       0.067756
 **** Fit       0.065095
 **** Fit       0.063154
 **** Fit       0.061795
 **** Fit       0.060921
 **** Fit       0.060469
 **** Fit       0.060405
 **** Fit       0.060722
 **** Fit       0.061442
 **** Fit       0.062611
 **** Fit       0.064304
 **** Fit       0.066626
 **** Fit       0.070077
 **** Fit       0.074177
 **** Fit       0.079428
 **** Fit       0.086031
 **** Fit       0.096311
 **** Fit       0.086632
 **** Fit       0.079336
 **** Fit       0.073815
 **** Fit       0.069646
 **** Fit       0.066530
 **** Fit       0.064243
 **** Fit       0.062625
 **** Fit       0.061559
 **** Fit       0.060965
 **** Fit       0.060800
 **** Fit       0.061049
 **** Fit       0.061727
 **** Fit       0.062879
 **** Fit       0.064579
 **** Fit       0.066933
 **** Fit       0.070415
 **** Fit       0.074496
 **** Fit       0.079685
 **** Fit       0.086118
 **** Fit       0.091089
 **** Fit       0.082873
 **** Fit       0.076603
 **** Fit       0.071837
 **** Fit       0.068248
 **** Fit       0.065593
 **** Fit       0.063690
 **** Fit       0.062406
 **** Fit       0.061649
 **** Fit       0.061363
 **** Fit       0.061525
 **** Fit       0.062143
 **** Fit       0.063257
 **** Fit       0.064936
 **** Fit       0.067279
 **** Fit       0.070732
 **** Fit       0.074893
 **** Fit       0.080167
 **** Fit       0.086605
 **** Fit       0.091820
 **** Fit       0.083492
 **** Fit       0.077071
 **** Fit       0.072186
 **** Fit       0.068529
 **** Fit       0.065862
 **** Fit       0.064000
 **** Fit       0.062810
 **** Fit       0.062203
 **** Fit       0.062131
 **** Fit       0.062584
 **** Fit       0.063591
 **** Fit       0.065215
 **** Fit       0.067554
 **** Fit       0.071048
 **** Fit       0.075181
 **** Fit       0.080365
 **** Fit       0.086506
 **** Fit       0.101651
 **** Fit       0.091869
 **** Fit       0.083820
 **** Fit       0.077455
 **** Fit       0.072562
 **** Fit       0.068907
 **** Fit       0.066276
 **** Fit       0.064499
 **** Fit       0.063450
 **** Fit       0.063052
 **** Fit       0.063268
 **** Fit       0.064109
 **** Fit       0.065624
 **** Fit       0.067900
 **** Fit       0.071400
 **** Fit       0.075381
 **** Fit       0.080275
 **** Fit       0.085806
 **** Fit       0.112484
 **** Fit       0.112569
 **** Fit       0.099503
 **** Fit       0.091212
 **** Fit       0.083844
 **** Fit       0.077763
 **** Fit       0.072994
 **** Fit       0.069419
 **** Fit       0.066884
 **** Fit       0.065247
 **** Fit       0.064402
 **** Fit       0.064286
 **** Fit       0.064884
 **** Fit       0.066223
 **** Fit       0.068368
 **** Fit       0.071851
 **** Fit       0.075698
 **** Fit       0.080313
 **** Fit       0.085214
 **** Fit       0.105302
 **** Fit       0.105390
 **** Fit       0.105636
 **** Fit       0.106299
 **** Fit       0.106913
 **** Fit       0.106463
 **** Fit       0.103876
 **** Fit       0.098917
 **** Fit       0.092452
 **** Fit       0.085725
 **** Fit       0.079647
 **** Fit       0.074650
 **** Fit       0.070839
 **** Fit       0.068157
 **** Fit       0.066503
 **** Fit       0.065783
 **** Fit       0.065947
 **** Fit       0.066990
 **** Fit       0.068944
 **** Fit       0.072485
 **** Fit       0.076114
 **** Fit       0.080353
 **** Fit       0.084612
 **** Fit       0.096804
 **** Fit       0.098292
 **** Fit       0.098913
 **** Fit       0.099164
 **** Fit       0.099177
 **** Fit       0.098470
 **** Fit       0.096288
 **** Fit       0.092301
 **** Fit       0.087026
 **** Fit       0.081462
 **** Fit       0.076464
 **** Fit       0.072495
 **** Fit       0.069703
 **** Fit       0.068081
 **** Fit       0.067575
 **** Fit       0.068149
 **** Fit       0.069792
 **** Fit       0.073410
 **** Fit       0.076963
 **** Fit       0.081022
 **** Fit       0.084888
 **** Fit       0.088193
 **** Fit       0.090812
 **** Fit       0.092485
 **** Fit       0.093167
 **** Fit       0.093013
 **** Fit       0.091806
 **** Fit       0.089056
 **** Fit       0.084795
 **** Fit       0.079881
 **** Fit       0.075402
 **** Fit       0.072077
 **** Fit       0.070203
 **** Fit       0.069835
 **** Fit       0.070939
 **** Fit       0.074740
 **** Fit       0.078282
 **** Fit       0.082190
 **** Fit       0.085447
 **** Fit       0.087434
 **** Fit       0.087847
 **** Fit       0.086522
 **** Fit       0.083309
 **** Fit       0.078929
 **** Fit       0.074974
 **** Fit       0.072723
 **** Fit       0.072677
 **** Fit       0.076594
 **** Fit       0.080259
 **** Fit       0.082993
 **** Fit       0.082347
 **** Fit       0.078653
 **** Fit       0.075675
 **** Fit       0.079087
 **** Fit       0.126733
 **** Fit       0.124854
 **** Fit       0.127811
 **** Fit       0.129594
 **** Fit       0.128373
 **** Fit       0.125779
 **** Fit       0.124118
 **** Fit       0.122571
 **** Fit       0.125543
 **** Fit       0.129040
 **** Fit       0.131496
 **** Fit       0.132562
 **** Fit       0.131988
 **** Fit       0.129860
 **** Fit       0.127249
 **** Fit       0.124953
 **** Fit       0.123138
 **** Fit       0.121821
 **** Fit       0.121382
 **** Fit       0.119653
 **** Fit       0.122610
 **** Fit       0.126689
 **** Fit       0.130534
 **** Fit       0.135414
 **** Fit       0.133817
 **** Fit       0.131195
 **** Fit       0.128484
 **** Fit       0.126156
 **** Fit       0.124276
 **** Fit       0.122709
 **** Fit       0.121278
 **** Fit       0.119906
 **** Fit       0.118780
 **** Fit       0.118459
 **** Fit       0.123754
 **** Fit       0.129010
 **** Fit       0.136867
 **** Fit       0.133887
 **** Fit       0.130771
 **** Fit       0.128073
 **** Fit       0.125925
 **** Fit       0.124253
 **** Fit       0.122891
 **** Fit       0.121641
 **** Fit       0.120304
 **** Fit       0.118745
 **** Fit       0.116997
 **** Fit       0.115411
 **** Fit       0.138534
 **** Fit       0.134840
 **** Fit       0.131374
 **** Fit       0.128524
 **** Fit       0.126335
 **** Fit       0.124706
 **** Fit       0.123480
 **** Fit       0.122472
 **** Fit       0.121477
 **** Fit       0.120274
 **** Fit       0.118652
 **** Fit       0.116476
 **** Fit       0.139327
 **** Fit       0.135202
 **** Fit       0.131597
 **** Fit       0.128731
 **** Fit       0.126583
 **** Fit       0.125042
 **** Fit       0.123969
 **** Fit       0.123209
 **** Fit       0.122593
 **** Fit       0.121926
 **** Fit       0.120980
 **** Fit       0.119495
 **** Fit       0.117212
 **** Fit       0.139518
 **** Fit       0.135025
 **** Fit       0.131292
 **** Fit       0.128435
 **** Fit       0.126383
 **** Fit       0.125007
 **** Fit       0.124162
 **** Fit       0.123702
 **** Fit       0.123467
 **** Fit       0.123273
 **** Fit       0.122884
 **** Fit       0.121997
 **** Fit       0.120236
 **** Fit       0.138689
 **** Fit       0.134167
 **** Fit       0.130562
 **** Fit       0.127894
 **** Fit       0.126065
 **** Fit       0.124944
 **** Fit       0.124398
 **** Fit       0.124300
 **** Fit       0.124517
 **** Fit       0.124891
 **** Fit       0.125218
 **** Fit       0.125208
 **** Fit       0.124454
 **** Fit       0.134736
 **** Fit       0.130905
 **** Fit       0.128089
 **** Fit       0.126197
 **** Fit       0.125104
 **** Fit       0.124688
 **** Fit       0.124839
 **** Fit       0.125453
 **** Fit       0.126416
 **** Fit       0.127579
 **** Fit       0.128719
 **** Fit       0.125883
 **** Fit       0.124942
 **** Fit       0.124810
 **** Fit       0.125389
 **** Fit       0.126601
 **** Fit       0.128368
 **** Fit       0.133331
 **** Fit       0.130536
 **** Fit       0.130364
 **** Fit       0.126758
 **** Fit       0.124534
 **** Fit       0.123421
 **** Fit       0.123172
 **** Fit       0.123568
 **** Fit       0.124422
 **** Fit       0.125580
 **** Fit       0.126898
 **** Fit       0.125491
 **** Fit       0.122039
 **** Fit       0.119942
 **** Fit       0.118967
 **** Fit       0.118900
 **** Fit       0.119554
 **** Fit       0.120769
 **** Fit       0.122410
 **** Fit       0.124345
 **** Fit       0.123097
 **** Fit       0.119230
 **** Fit       0.116754
 **** Fit       0.115484
 **** Fit       0.115237
 **** Fit       0.115847
 **** Fit       0.117165
 **** Fit       0.119064
 **** Fit       0.121425
 **** Fit       0.126444
 **** Fit       0.121047
 **** Fit       0.117029
 **** Fit       0.114315
 **** Fit       0.112797
 **** Fit       0.112342
 **** Fit       0.112817
 **** Fit       0.114096
 **** Fit       0.116067
 **** Fit       0.118620
 **** Fit       0.125446
 **** Fit       0.119945
 **** Fit       0.115669
 **** Fit       0.112658
 **** Fit       0.110876
 **** Fit       0.110236
 **** Fit       0.110631
 **** Fit       0.111946
 **** Fit       0.114070
 **** Fit       0.122513
 **** Fit       0.117419
 **** Fit       0.113432
 **** Fit       0.110685
 **** Fit       0.109196
 **** Fit       0.108913
 **** Fit       0.109742
 **** Fit       0.111567
 **** Fit       0.114253
 **** Fit       0.120185
 **** Fit       0.115630
 **** Fit       0.112000
 **** Fit       0.109546
 **** Fit       0.108363
 **** Fit       0.108435
 **** Fit       0.109674
 **** Fit       0.111940
 **** Fit       0.116288
 **** Fit       0.120677
 **** Fit       0.116730
 **** Fit       0.113000
 **** Fit       0.110156
 **** Fit       0.108562
 **** Fit       0.108343
 **** Fit       0.109453
 **** Fit       0.111706
 **** Fit       0.113599
 **** Fit       0.116613
 **** Fit       0.118547
 **** Fit       0.118358
 **** Fit       0.116167
 **** Fit       0.113090
 **** Fit       0.110395
 **** Fit       0.108947
 **** Fit       0.109099
 **** Fit       0.110763
 **** Fit       0.111782
 **** Fit       0.112350
 **** Fit       0.113943
 **** Fit       0.114572
 **** Fit       0.113255
 **** Fit       0.111053
 **** Fit       0.109762
 **** Fit       0.110330
 **** Fit       0.112148
 **** Fit       0.112361
 **** Fit       0.111810
 **** Fit       0.110767
 **** Fit       0.111736
 **** Fit       0.111676
 **** Fit       0.125443
 **** Fit       0.119442
 **** Fit       0.125238
 **** Fit       0.120493
 **** Fit       0.115682
 **** Fit       0.126580
 **** Fit       0.122625
 **** Fit       0.118781
 **** Fit       0.114838
 **** Fit       0.110521
 **** Fit       0.123266
 **** Fit       0.120252
 **** Fit       0.117233
 **** Fit       0.114088
 **** Fit       0.110645
 **** Fit       0.106662
 **** Fit       0.121110
 **** Fit       0.118846
 **** Fit       0.116506
 **** Fit       0.114038
 **** Fit       0.111344
 **** Fit       0.108283
 **** Fit       0.104643
 **** Fit       0.118495
 **** Fit       0.116776
 **** Fit       0.114904
 **** Fit       0.112853
 **** Fit       0.110559
 **** Fit       0.107909
 **** Fit       0.104737
 **** Fit       0.116723
 **** Fit       0.115517
 **** Fit       0.114087
 **** Fit       0.112442
 **** Fit       0.110550
 **** Fit       0.108336
 **** Fit       0.105682
 **** Fit       0.102405
 **** Fit       0.115057
 **** Fit       0.114313
 **** Fit       0.113301
 **** Fit       0.112047
 **** Fit       0.110543
 **** Fit       0.108747
 **** Fit       0.106585
 **** Fit       0.103939
 **** Fit       0.113147
 **** Fit       0.112363
 **** Fit       0.111308
 **** Fit       0.109971
 **** Fit       0.108319
 **** Fit       0.106289
 **** Fit       0.103791
 **** Fit       0.112411
 **** Fit       0.111751
 **** Fit       0.110846
 **** Fit       0.109659
 **** Fit       0.108156
 **** Fit       0.106298
 **** Fit       0.104055
 **** Fit       0.111832
 **** Fit       0.111019
 **** Fit       0.109986
 **** Fit       0.108660
 **** Fit       0.107021
 **** Fit       0.105126
 **** Fit       0.103212
 **** Fit       0.108674
 **** Fit       0.112088
 **** Fit       0.111007
 **** Fit       0.109801
 **** Fit       0.108335
 **** Fit       0.106751
 **** Fit       0.105636
 **** Fit       0.108680
 **** Fit       0.111106
 **** Fit       0.112328
 **** Fit       0.111417
 **** Fit       0.109924
 **** Fit       0.108498
 **** Fit       0.110359
 -----------------------------------------------------------------
 Leave Link  602 at Sat Aug  2 11:06:17 2025, MaxMem=   393216000 cpu:              19.8 elap:               0.7

 Test job not archived.
 1\1\GINC-E2301\FOpt\RB3LYP\GenECP\C10H14Cl1N4O7Pt1(1+)\PHARMD\02-Aug-2
 025\0\\# B3LYP/genecp Integral=(Grid=UltraFine) Opt=calcfc scf=xqc Pop
 (MK,ReadRadii) IOp(6/33=2,6/42=6)\\CLR\\1,1\Pt,0.3629891865,0.12605712
 77,-1.6029894114\N,-1.0799985858,-0.0550300741,-0.1900026378\C,-1.5069
 980156,0.7009978756,0.7980025636\C,-2.994000149,-0.9599998031,0.460999
 7807\C,-2.7340005754,0.1390006156,1.2539992337\O,-1.9759999554,-1.0970
 000586,-0.3829999367\C,-4.1069999472,-1.9180000698,0.357000078\H,-3.84
 06081348,-2.748222913,-0.3100272447\H,-4.3816058647,-2.2981097147,1.35
 14679158\H,-5.0014188734,-1.4044083059,-0.0328989047\C,1.297993436,-1.
 8379954353,1.154004723\H,2.0375260112,-2.6206831283,1.3761394947\H,0.6
 751256367,-1.7485238345,2.0573474317\H,0.6855250616,-2.1410475578,0.29
 71968316\N,-3.573,0.644,2.285\O,-3.152,1.572,2.967\O,-4.675,0.125,2.43
 5\N,1.7510246035,0.1869738152,-0.1720254831\C,1.9960011909,-0.55799462
 66,0.8870035214\C,3.3209967194,1.2700023074,0.9650023971\C,3.002995164
 2,0.1100033535,1.6420034573\O,2.5599962776,1.3160024994,-0.1279960933\
 C,4.267001166,2.37499918,1.1959991474\H,4.1328045794,2.7833176519,2.20
 84837759\H,5.3006308351,1.995816198,1.1509110303\H,4.1293917401,3.1599
 462,0.4411790705\C,-0.7930007032,1.9170007539,1.2529990886\H,-0.399004
 7128,1.7648042009,2.2699896918\H,0.0183672078,2.1812820101,0.565004537
 2\H,-1.5006065302,2.7548713238,1.3294168432\N,3.586,-0.323,2.87\O,3.15
 3,-1.347,3.383\O,4.488,0.36,3.343\Cl,1.9860012468,0.3359816641,-3.2550
 011052\H,-1.3564433497,-0.7872743276,-3.3247821346\O,-1.1160010591,0.1
 120008749,-3.0369993231\H,-0.766346866,0.5527947891,-3.8380874612\\Ver
 sion=ES64L-G16RevC.01\State=1-A\HF=-1713.2525786\RMSD=8.316e-09\RMSF=7
 .298e-08\Dipole=-1.4654169,-0.3831782,-1.0548259\Quadrupole=9.4590955,
 0.7857142,-10.2448097,17.5714984,13.7039889,3.8463522\PG=C01 [X(C10H14
 Cl1N4O7Pt1)]\\@


 ONE BIG VICE IN A MAN IS APT TO KEEP OUT MANY SMALLER ONES.

                           -- BRET HARTE
 Job cpu time:       0 days 10 hours  1 minutes 24.5 seconds.
 Elapsed time:       0 days  0 hours 13 minutes 49.8 seconds.
 File lengths (MBytes):  RWF=    355 Int=      0 D2E=      0 Chk=     15 Scr=      1
 Normal termination of Gaussian 16 at Sat Aug  2 11:06:17 2025.
