 Entering Gaussian System, Link 0=g16
 Input=CIX_small_fc.gjf
 Output=CIX_small_fc.log
 Initial command:
 /opt/exp_soft/local/skylake/gaussian/g16/C.01/l1.exe "/mnt/storage_5/scratch/pl0251-02/35465951/Gau-5581.inp" -scrdir="/mnt/storage_5/scratch/pl0251-02/35465951/"
 Entering Link 1 = /opt/exp_soft/local/skylake/gaussian/g16/C.01/l1.exe PID=      5582.
  
 Copyright (c) 1988-2019, Gaussian, Inc.  All Rights Reserved.
  
 This is part of the Gaussian(R) 16 program.  It is based on
 the Gaussian(R) 09 system (copyright 2009, Gaussian, Inc.),
 the Gaussian(R) 03 system (copyright 2003, Gaussian, Inc.),
 the Gaussian(R) 98 system (copyright 1998, Gaussian, Inc.),
 the Gaussian(R) 94 system (copyright 1995, Gaussian, Inc.),
 the Gaussian 92(TM) system (copyright 1992, Gaussian, Inc.),
 the Gaussian 90(TM) system (copyright 1990, Gaussian, Inc.),
 the Gaussian 88(TM) system (copyright 1988, Gaussian, Inc.),
 the Gaussian 86(TM) system (copyright 1986, Carnegie Mellon
 University), and the Gaussian 82(TM) system (copyright 1983,
 Carnegie Mellon University). Gaussian is a federally registered
 trademark of Gaussian, Inc.
  
 This software contains proprietary and confidential information,
 including trade secrets, belonging to Gaussian, Inc.
  
 This software is provided under written license and may be
 used, copied, transmitted, or stored only in accord with that
 written license.
  
 The following legend is applicable only to US Government
 contracts under FAR:
  
                    RESTRICTED RIGHTS LEGEND
  
 Use, reproduction and disclosure by the US Government is
 subject to restrictions as set forth in subparagraphs (a)
 and (c) of the Commercial Computer Software - Restricted
 Rights clause in FAR 52.227-19.
  
 Gaussian, Inc.
 340 Quinnipiac St., Bldg. 40, Wallingford CT 06492
  
  
 ---------------------------------------------------------------
 Warning -- This program may not be used in any manner that
 competes with the business of Gaussian, Inc. or will provide
 assistance to any competitor of Gaussian, Inc.  The licensee
 of this program is prohibited from giving any competitor of
 Gaussian, Inc. access to this program.  By using this program,
 the user acknowledges that Gaussian, Inc. is engaged in the
 business of creating and licensing software in the field of
 computational chemistry and represents and warrants to the
 licensee that it is not a competitor of Gaussian, Inc. and that
 it will not use this program in any manner prohibited above.
 ---------------------------------------------------------------
  

 Cite this work as:
 Gaussian 16, Revision C.01,
 M. J. Frisch, G. W. Trucks, H. B. Schlegel, G. E. Scuseria, 
 M. A. Robb, J. R. Cheeseman, G. Scalmani, V. Barone, 
 G. A. Petersson, H. Nakatsuji, X. Li, M. Caricato, A. V. Marenich, 
 J. Bloino, B. G. Janesko, R. Gomperts, B. Mennucci, H. P. Hratchian, 
 J. V. Ortiz, A. F. Izmaylov, J. L. Sonnenberg, D. Williams-Young, 
 F. Ding, F. Lipparini, F. Egidi, J. Goings, B. Peng, A. Petrone, 
 T. Henderson, D. Ranasinghe, V. G. Zakrzewski, J. Gao, N. Rega, 
 G. Zheng, W. Liang, M. Hada, M. Ehara, K. Toyota, R. Fukuda, 
 J. Hasegawa, M. Ishida, T. Nakajima, Y. Honda, O. Kitao, H. Nakai, 
 T. Vreven, K. Throssell, J. A. Montgomery, Jr., J. E. Peralta, 
 F. Ogliaro, M. J. Bearpark, J. J. Heyd, E. N. Brothers, K. N. Kudin, 
 V. N. Staroverov, T. A. Keith, R. Kobayashi, J. Normand, 
 K. Raghavachari, A. P. Rendell, J. C. Burant, S. S. Iyengar, 
 J. Tomasi, M. Cossi, J. M. Millam, M. Klene, C. Adamo, R. Cammi, 
 J. W. Ochterski, R. L. Martin, K. Morokuma, O. Farkas, 
 J. B. Foresman, and D. J. Fox, Gaussian, Inc., Wallingford CT, 2019.
 
 ******************************************
 Gaussian 16:  ES64L-G16RevC.01  3-Jul-2019
                 2-Aug-2025 
 ******************************************
 %Chk=CIX_small_opt.chk
 %Mem=3000MB
 %NProcShared=48
 Will use up to   48 processors via shared memory.
 ----------------------------------------------------------------------
 # B3LYP/genecp Freq Geom=AllCheckpoint Guess=Read Integral=(Grid=Ultra
 Fine) IOp(7/33=1) scf=xqc
 ----------------------------------------------------------------------
 1/10=4,29=7,30=1,38=1/1,3;
 2/12=2,40=1/2;
 3/5=7,11=2,14=-4,16=1,17=8,25=1,30=1,71=2,74=-5,75=-5,116=-2,140=1/1,2,3;
 4/5=1/1;
 5/5=2,8=3,13=1,38=6,98=1/2,8;
 8/6=4,10=90,11=11/1;
 11/6=1,8=1,9=11,15=111,16=1/1,2,10;
 10/6=1/2;
 6/7=2,8=2,9=2,10=2,28=1/1;
 7/8=1,10=1,25=1,33=1/1,2,3,16;
 1/10=4,30=1/3;
 99//99;
 Structure from the checkpoint file:  "CIX_small_opt.chk"
 ---
 CLR
 ---
 Charge =  1 Multiplicity = 1
 Redundant internal coordinates found in file.  (old form).
 Pt,0,0.2928698056,0.0347951433,-1.3891309978
 N,0,-1.3092267035,0.2745926165,-0.1028076832
 C,0,-2.0244923513,1.31694011,0.2859989424
 C,0,-2.8463460159,-0.5254631637,1.2951878026
 C,0,-3.0239325995,0.8377199729,1.1834606544
 O,0,-1.8108765721,-0.8634303119,0.5187308479
 C,0,-3.53197168,-1.5994559513,2.0495032884
 H,0,-3.0602076505,-2.5696333465,1.8470765725
 H,0,-3.5007200641,-1.3811841383,3.1278523407
 H,0,-4.5965738944,-1.6328466519,1.7717452388
 C,0,2.4660598335,-2.4354793614,-0.1042767336
 H,0,3.409888838,-2.5548602135,-0.6583099982
 H,0,2.4622119972,-3.2006298708,0.6839810819
 H,0,1.6259347766,-2.58221472,-0.7934446512
 N,0,-4.0353797398,1.6198738334,1.8596962094
 O,0,-4.0475112448,2.8180231159,1.6358628885
 O,0,-4.7915450856,1.0126645563,2.5985772431
 N,0,1.5694404898,-0.1399787964,0.1268045281
 C,0,2.4191318264,-1.0807391265,0.5067117269
 C,0,2.7823393897,0.7701064628,1.7484369605
 C,0,3.2125412873,-0.5252189675,1.553248741
 O,0,1.7872095613,1.0018615422,0.8843709562
 C,0,3.1817434694,1.8673970797,2.6583735034
 H,0,3.1020584522,1.5385291327,3.705414052
 H,0,4.2400244912,2.1218110565,2.4926545475
 H,0,2.5550811991,2.7522755693,2.4883420706
 C,0,-1.7567786153,2.7021682806,-0.1876372757
 H,0,-1.6251873209,3.3727629621,0.6735125013
 H,0,-0.8659702763,2.7306867934,-0.8283410328
 H,0,-2.6274077641,3.0818727995,-0.7434542799
 N,0,4.2711024685,-1.1834703868,2.2882231005
 O,0,4.5278258916,-2.333462755,1.9785916062
 O,0,4.8175315067,-0.5276300505,3.1589044495
 Cl,0,1.9860218361,-0.1491736276,-2.9410524556
 H,0,-1.5052388133,-0.4950085786,-3.2839348694
 O,0,-0.9213098474,0.2599318483,-3.0948065492
 H,0,-0.2663408813,0.2878671426,-3.8270653278
 Recover connectivity data from disk.

 GradGradGradGradGradGradGradGradGradGradGradGradGradGradGradGradGradGrad
 Berny optimization.
 Initialization pass.
                           ----------------------------
                           !    Initial Parameters    !
                           ! (Angstroms and Degrees)  !
 --------------------------                            --------------------------
 ! Name  Definition              Value          Derivative Info.                !
 --------------------------------------------------------------------------------
 ! R1    R(1,2)                  2.0685         calculate D2E/DX2 analytically  !
 ! R2    R(1,18)                 1.9895         calculate D2E/DX2 analytically  !
 ! R3    R(1,34)                 2.3041         calculate D2E/DX2 analytically  !
 ! R4    R(1,36)                 2.1058         calculate D2E/DX2 analytically  !
 ! R5    R(2,3)                  1.3226         calculate D2E/DX2 analytically  !
 ! R6    R(2,6)                  1.3903         calculate D2E/DX2 analytically  !
 ! R7    R(3,5)                  1.4262         calculate D2E/DX2 analytically  !
 ! R8    R(3,27)                 1.4882         calculate D2E/DX2 analytically  !
 ! R9    R(4,5)                  1.3792         calculate D2E/DX2 analytically  !
 ! R10   R(4,6)                  1.3376         calculate D2E/DX2 analytically  !
 ! R11   R(4,7)                  1.4807         calculate D2E/DX2 analytically  !
 ! R12   R(5,15)                 1.4464         calculate D2E/DX2 analytically  !
 ! R13   R(7,8)                  1.0976         calculate D2E/DX2 analytically  !
 ! R14   R(7,9)                  1.1007         calculate D2E/DX2 analytically  !
 ! R15   R(7,10)                 1.1007         calculate D2E/DX2 analytically  !
 ! R16   R(11,12)                1.1009         calculate D2E/DX2 analytically  !
 ! R17   R(11,13)                1.0986         calculate D2E/DX2 analytically  !
 ! R18   R(11,14)                1.0965         calculate D2E/DX2 analytically  !
 ! R19   R(11,19)                1.4869         calculate D2E/DX2 analytically  !
 ! R20   R(15,16)                1.2189         calculate D2E/DX2 analytically  !
 ! R21   R(15,17)                1.2192         calculate D2E/DX2 analytically  !
 ! R22   R(18,19)                1.3234         calculate D2E/DX2 analytically  !
 ! R23   R(18,22)                1.3875         calculate D2E/DX2 analytically  !
 ! R24   R(19,21)                1.426          calculate D2E/DX2 analytically  !
 ! R25   R(20,21)                1.3788         calculate D2E/DX2 analytically  !
 ! R26   R(20,22)                1.3381         calculate D2E/DX2 analytically  !
 ! R27   R(20,23)                1.4804         calculate D2E/DX2 analytically  !
 ! R28   R(21,31)                1.4471         calculate D2E/DX2 analytically  !
 ! R29   R(23,24)                1.1004         calculate D2E/DX2 analytically  !
 ! R30   R(23,25)                1.101          calculate D2E/DX2 analytically  !
 ! R31   R(23,26)                1.0976         calculate D2E/DX2 analytically  !
 ! R32   R(27,28)                1.0994         calculate D2E/DX2 analytically  !
 ! R33   R(27,29)                1.0977         calculate D2E/DX2 analytically  !
 ! R34   R(27,30)                1.1005         calculate D2E/DX2 analytically  !
 ! R35   R(31,32)                1.2183         calculate D2E/DX2 analytically  !
 ! R36   R(31,33)                1.2193         calculate D2E/DX2 analytically  !
 ! R37   R(35,36)                0.973          calculate D2E/DX2 analytically  !
 ! R38   R(36,37)                0.9828         calculate D2E/DX2 analytically  !
 ! A1    A(2,1,18)              91.9093         calculate D2E/DX2 analytically  !
 ! A2    A(2,1,36)              92.5636         calculate D2E/DX2 analytically  !
 ! A3    A(18,1,34)             91.9881         calculate D2E/DX2 analytically  !
 ! A4    A(34,1,36)             83.4928         calculate D2E/DX2 analytically  !
 ! A5    A(1,2,3)              133.8701         calculate D2E/DX2 analytically  !
 ! A6    A(1,2,6)              117.552          calculate D2E/DX2 analytically  !
 ! A7    A(3,2,6)              108.5744         calculate D2E/DX2 analytically  !
 ! A8    A(2,3,5)              107.4071         calculate D2E/DX2 analytically  !
 ! A9    A(2,3,27)             122.8687         calculate D2E/DX2 analytically  !
 ! A10   A(5,3,27)             129.7241         calculate D2E/DX2 analytically  !
 ! A11   A(5,4,6)              107.5998         calculate D2E/DX2 analytically  !
 ! A12   A(5,4,7)              134.3087         calculate D2E/DX2 analytically  !
 ! A13   A(6,4,7)              118.0914         calculate D2E/DX2 analytically  !
 ! A14   A(3,5,4)              107.0288         calculate D2E/DX2 analytically  !
 ! A15   A(3,5,15)             127.0527         calculate D2E/DX2 analytically  !
 ! A16   A(4,5,15)             125.9182         calculate D2E/DX2 analytically  !
 ! A17   A(2,6,4)              109.3894         calculate D2E/DX2 analytically  !
 ! A18   A(4,7,8)              110.3733         calculate D2E/DX2 analytically  !
 ! A19   A(4,7,9)              110.0056         calculate D2E/DX2 analytically  !
 ! A20   A(4,7,10)             109.9553         calculate D2E/DX2 analytically  !
 ! A21   A(8,7,9)              110.1063         calculate D2E/DX2 analytically  !
 ! A22   A(8,7,10)             110.0196         calculate D2E/DX2 analytically  !
 ! A23   A(9,7,10)             106.3018         calculate D2E/DX2 analytically  !
 ! A24   A(12,11,13)           106.7727         calculate D2E/DX2 analytically  !
 ! A25   A(12,11,14)           109.0295         calculate D2E/DX2 analytically  !
 ! A26   A(12,11,19)           109.4298         calculate D2E/DX2 analytically  !
 ! A27   A(13,11,14)           110.7994         calculate D2E/DX2 analytically  !
 ! A28   A(13,11,19)           109.8552         calculate D2E/DX2 analytically  !
 ! A29   A(14,11,19)           110.8558         calculate D2E/DX2 analytically  !
 ! A30   A(5,15,16)            116.9133         calculate D2E/DX2 analytically  !
 ! A31   A(5,15,17)            116.5981         calculate D2E/DX2 analytically  !
 ! A32   A(16,15,17)           126.4885         calculate D2E/DX2 analytically  !
 ! A33   A(1,18,19)            133.8808         calculate D2E/DX2 analytically  !
 ! A34   A(1,18,22)            116.3875         calculate D2E/DX2 analytically  !
 ! A35   A(19,18,22)           109.1174         calculate D2E/DX2 analytically  !
 ! A36   A(11,19,18)           123.3669         calculate D2E/DX2 analytically  !
 ! A37   A(11,19,21)           129.7155         calculate D2E/DX2 analytically  !
 ! A38   A(18,19,21)           106.9175         calculate D2E/DX2 analytically  !
 ! A39   A(21,20,22)           107.6579         calculate D2E/DX2 analytically  !
 ! A40   A(21,20,23)           134.3617         calculate D2E/DX2 analytically  !
 ! A41   A(22,20,23)           117.9802         calculate D2E/DX2 analytically  !
 ! A42   A(19,21,20)           107.2348         calculate D2E/DX2 analytically  !
 ! A43   A(19,21,31)           127.0541         calculate D2E/DX2 analytically  !
 ! A44   A(20,21,31)           125.7107         calculate D2E/DX2 analytically  !
 ! A45   A(18,22,20)           109.0719         calculate D2E/DX2 analytically  !
 ! A46   A(20,23,24)           110.109          calculate D2E/DX2 analytically  !
 ! A47   A(20,23,25)           109.7609         calculate D2E/DX2 analytically  !
 ! A48   A(20,23,26)           110.3848         calculate D2E/DX2 analytically  !
 ! A49   A(24,23,25)           106.3735         calculate D2E/DX2 analytically  !
 ! A50   A(24,23,26)           110.3053         calculate D2E/DX2 analytically  !
 ! A51   A(25,23,26)           109.8281         calculate D2E/DX2 analytically  !
 ! A52   A(3,27,28)            109.8771         calculate D2E/DX2 analytically  !
 ! A53   A(3,27,29)            110.8507         calculate D2E/DX2 analytically  !
 ! A54   A(3,27,30)            109.8507         calculate D2E/DX2 analytically  !
 ! A55   A(28,27,29)           110.1351         calculate D2E/DX2 analytically  !
 ! A56   A(28,27,30)           106.2515         calculate D2E/DX2 analytically  !
 ! A57   A(29,27,30)           109.7715         calculate D2E/DX2 analytically  !
 ! A58   A(21,31,32)           117.029          calculate D2E/DX2 analytically  !
 ! A59   A(21,31,33)           116.4761         calculate D2E/DX2 analytically  !
 ! A60   A(32,31,33)           126.4949         calculate D2E/DX2 analytically  !
 ! A61   A(1,36,35)            114.8686         calculate D2E/DX2 analytically  !
 ! A62   A(1,36,37)            102.843          calculate D2E/DX2 analytically  !
 ! A63   A(35,36,37)           106.0916         calculate D2E/DX2 analytically  !
 ! A64   L(2,1,34,36,-1)       176.0564         calculate D2E/DX2 analytically  !
 ! A65   L(18,1,36,34,-1)      175.4809         calculate D2E/DX2 analytically  !
 ! A66   L(2,1,34,36,-2)       178.3612         calculate D2E/DX2 analytically  !
 ! A67   L(18,1,36,34,-2)      181.5052         calculate D2E/DX2 analytically  !
 ! D1    D(18,1,2,3)           103.5778         calculate D2E/DX2 analytically  !
 ! D2    D(18,1,2,6)           -77.1924         calculate D2E/DX2 analytically  !
 ! D3    D(36,1,2,3)           -74.7885         calculate D2E/DX2 analytically  !
 ! D4    D(36,1,2,6)           104.4412         calculate D2E/DX2 analytically  !
 ! D5    D(2,1,18,19)          121.6568         calculate D2E/DX2 analytically  !
 ! D6    D(2,1,18,22)          -68.4968         calculate D2E/DX2 analytically  !
 ! D7    D(34,1,18,19)         -60.0843         calculate D2E/DX2 analytically  !
 ! D8    D(34,1,18,22)         109.7621         calculate D2E/DX2 analytically  !
 ! D9    D(2,1,36,35)          -72.4831         calculate D2E/DX2 analytically  !
 ! D10   D(2,1,36,37)          172.7445         calculate D2E/DX2 analytically  !
 ! D11   D(34,1,36,35)         109.1557         calculate D2E/DX2 analytically  !
 ! D12   D(34,1,36,37)          -5.6167         calculate D2E/DX2 analytically  !
 ! D13   D(1,2,3,5)            179.0502         calculate D2E/DX2 analytically  !
 ! D14   D(1,2,3,27)            -0.8346         calculate D2E/DX2 analytically  !
 ! D15   D(6,2,3,5)             -0.2293         calculate D2E/DX2 analytically  !
 ! D16   D(6,2,3,27)           179.8858         calculate D2E/DX2 analytically  !
 ! D17   D(1,2,6,4)           -179.2412         calculate D2E/DX2 analytically  !
 ! D18   D(3,2,6,4)              0.173          calculate D2E/DX2 analytically  !
 ! D19   D(2,3,5,4)              0.2067         calculate D2E/DX2 analytically  !
 ! D20   D(2,3,5,15)          -179.9941         calculate D2E/DX2 analytically  !
 ! D21   D(27,3,5,4)          -179.919          calculate D2E/DX2 analytically  !
 ! D22   D(27,3,5,15)           -0.1198         calculate D2E/DX2 analytically  !
 ! D23   D(2,3,27,28)         -125.7736         calculate D2E/DX2 analytically  !
 ! D24   D(2,3,27,29)           -3.8089         calculate D2E/DX2 analytically  !
 ! D25   D(2,3,27,30)          117.6809         calculate D2E/DX2 analytically  !
 ! D26   D(5,3,27,28)           54.3692         calculate D2E/DX2 analytically  !
 ! D27   D(5,3,27,29)          176.3339         calculate D2E/DX2 analytically  !
 ! D28   D(5,3,27,30)          -62.1762         calculate D2E/DX2 analytically  !
 ! D29   D(6,4,5,3)             -0.1            calculate D2E/DX2 analytically  !
 ! D30   D(6,4,5,15)          -179.9021         calculate D2E/DX2 analytically  !
 ! D31   D(7,4,5,3)           -179.9627         calculate D2E/DX2 analytically  !
 ! D32   D(7,4,5,15)             0.2351         calculate D2E/DX2 analytically  !
 ! D33   D(5,4,6,2)             -0.0379         calculate D2E/DX2 analytically  !
 ! D34   D(7,4,6,2)            179.8508         calculate D2E/DX2 analytically  !
 ! D35   D(5,4,7,8)            179.8632         calculate D2E/DX2 analytically  !
 ! D36   D(5,4,7,9)            -58.4377         calculate D2E/DX2 analytically  !
 ! D37   D(5,4,7,10)            58.3058         calculate D2E/DX2 analytically  !
 ! D38   D(6,4,7,8)              0.0115         calculate D2E/DX2 analytically  !
 ! D39   D(6,4,7,9)            121.7106         calculate D2E/DX2 analytically  !
 ! D40   D(6,4,7,10)          -121.5459         calculate D2E/DX2 analytically  !
 ! D41   D(3,5,15,16)            0.5792         calculate D2E/DX2 analytically  !
 ! D42   D(3,5,15,17)         -179.3903         calculate D2E/DX2 analytically  !
 ! D43   D(4,5,15,16)         -179.6578         calculate D2E/DX2 analytically  !
 ! D44   D(4,5,15,17)            0.3726         calculate D2E/DX2 analytically  !
 ! D45   D(12,11,19,18)        112.3979         calculate D2E/DX2 analytically  !
 ! D46   D(12,11,19,21)        -67.4679         calculate D2E/DX2 analytically  !
 ! D47   D(13,11,19,18)       -130.6836         calculate D2E/DX2 analytically  !
 ! D48   D(13,11,19,21)         49.4505         calculate D2E/DX2 analytically  !
 ! D49   D(14,11,19,18)         -7.8918         calculate D2E/DX2 analytically  !
 ! D50   D(14,11,19,21)        172.2423         calculate D2E/DX2 analytically  !
 ! D51   D(1,18,19,11)          -9.3076         calculate D2E/DX2 analytically  !
 ! D52   D(1,18,19,21)         170.5845         calculate D2E/DX2 analytically  !
 ! D53   D(22,18,19,11)       -179.6862         calculate D2E/DX2 analytically  !
 ! D54   D(22,18,19,21)          0.206          calculate D2E/DX2 analytically  !
 ! D55   D(1,18,22,20)        -172.3877         calculate D2E/DX2 analytically  !
 ! D56   D(19,18,22,20)         -0.1163         calculate D2E/DX2 analytically  !
 ! D57   D(11,19,21,20)        179.6602         calculate D2E/DX2 analytically  !
 ! D58   D(11,19,21,31)         -0.5799         calculate D2E/DX2 analytically  !
 ! D59   D(18,19,21,20)         -0.2227         calculate D2E/DX2 analytically  !
 ! D60   D(18,19,21,31)        179.5372         calculate D2E/DX2 analytically  !
 ! D61   D(22,20,21,19)          0.1519         calculate D2E/DX2 analytically  !
 ! D62   D(22,20,21,31)       -179.6121         calculate D2E/DX2 analytically  !
 ! D63   D(23,20,21,19)       -179.7274         calculate D2E/DX2 analytically  !
 ! D64   D(23,20,21,31)          0.5086         calculate D2E/DX2 analytically  !
 ! D65   D(21,20,22,18)         -0.0288         calculate D2E/DX2 analytically  !
 ! D66   D(23,20,22,18)        179.8734         calculate D2E/DX2 analytically  !
 ! D67   D(21,20,23,24)        -57.1811         calculate D2E/DX2 analytically  !
 ! D68   D(21,20,23,25)         59.5956         calculate D2E/DX2 analytically  !
 ! D69   D(21,20,23,26)       -179.2062         calculate D2E/DX2 analytically  !
 ! D70   D(22,20,23,24)        122.9492         calculate D2E/DX2 analytically  !
 ! D71   D(22,20,23,25)       -120.2741         calculate D2E/DX2 analytically  !
 ! D72   D(22,20,23,26)          0.9241         calculate D2E/DX2 analytically  !
 ! D73   D(19,21,31,32)          0.7077         calculate D2E/DX2 analytically  !
 ! D74   D(19,21,31,33)       -179.264          calculate D2E/DX2 analytically  !
 ! D75   D(20,21,31,32)       -179.5747         calculate D2E/DX2 analytically  !
 ! D76   D(20,21,31,33)          0.4536         calculate D2E/DX2 analytically  !
 --------------------------------------------------------------------------------
 Trust Radius=3.00D-01 FncErr=1.00D-07 GrdErr=1.00D-07 EigMax=2.50D+02 EigMin=1.00D-04
 Number of steps in this run=      2 maximum allowed number of steps=      2.
 GradGradGradGradGradGradGradGradGradGradGradGradGradGradGradGradGradGrad

                          Input orientation:                          
 ---------------------------------------------------------------------
 Center     Atomic      Atomic             Coordinates (Angstroms)
 Number     Number       Type             X           Y           Z
 ---------------------------------------------------------------------
      1         78           0        0.292870    0.034795   -1.389131
      2          7           0       -1.309227    0.274593   -0.102808
      3          6           0       -2.024492    1.316940    0.285999
      4          6           0       -2.846346   -0.525463    1.295188
      5          6           0       -3.023933    0.837720    1.183461
      6          8           0       -1.810877   -0.863430    0.518731
      7          6           0       -3.531972   -1.599456    2.049503
      8          1           0       -3.060208   -2.569633    1.847077
      9          1           0       -3.500720   -1.381184    3.127852
     10          1           0       -4.596574   -1.632847    1.771745
     11          6           0        2.466060   -2.435479   -0.104277
     12          1           0        3.409889   -2.554860   -0.658310
     13          1           0        2.462212   -3.200630    0.683981
     14          1           0        1.625935   -2.582215   -0.793445
     15          7           0       -4.035380    1.619874    1.859696
     16          8           0       -4.047511    2.818023    1.635863
     17          8           0       -4.791545    1.012665    2.598577
     18          7           0        1.569440   -0.139979    0.126805
     19          6           0        2.419132   -1.080739    0.506712
     20          6           0        2.782339    0.770106    1.748437
     21          6           0        3.212541   -0.525219    1.553249
     22          8           0        1.787210    1.001862    0.884371
     23          6           0        3.181743    1.867397    2.658374
     24          1           0        3.102058    1.538529    3.705414
     25          1           0        4.240024    2.121811    2.492655
     26          1           0        2.555081    2.752276    2.488342
     27          6           0       -1.756779    2.702168   -0.187637
     28          1           0       -1.625187    3.372763    0.673513
     29          1           0       -0.865970    2.730687   -0.828341
     30          1           0       -2.627408    3.081873   -0.743454
     31          7           0        4.271102   -1.183470    2.288223
     32          8           0        4.527826   -2.333463    1.978592
     33          8           0        4.817532   -0.527630    3.158904
     34         17           0        1.986022   -0.149174   -2.941052
     35          1           0       -1.505239   -0.495009   -3.283935
     36          8           0       -0.921310    0.259932   -3.094807
     37          1           0       -0.266341    0.287867   -3.827065
 ---------------------------------------------------------------------
                    Distance matrix (angstroms):
                    1          2          3          4          5
     1  Pt   0.000000
     2  N    2.068537   0.000000
     3  C    3.133708   1.322597   0.000000
     4  C    4.168229   2.226481   2.255738   0.000000
     5  C    4.273651   2.216261   1.426173   1.379235   0.000000
     6  O    2.978673   1.390345   2.203137   1.337649   2.192552
     7  C    5.396702   3.617333   3.726635   1.480721   2.635898
     8  H    5.338466   3.867506   4.314525   2.128133   3.471564
     9  H    6.066256   4.240449   4.187512   2.125823   2.988565
    10  H    6.056305   4.237797   4.186202   2.125254   2.987136
    11  C    3.532119   4.647287   5.864983   5.816212   6.520132
    12  H    4.117793   5.530320   6.739069   6.861128   7.503051
    13  H    4.412688   5.188445   6.379447   5.975858   6.830485
    14  H    2.996772   4.153733   5.449241   5.347327   6.101260
    15  N    5.639246   3.618441   2.571373   2.516931   1.446404
    16  O    5.977947   4.121919   2.857969   3.569000   2.274639
    17  O    6.535237   4.468643   3.619003   2.801510   2.271038
    18  N    1.989532   2.917416   3.881277   4.583982   4.813678
    19  C    3.059351   4.013614   5.054045   5.353063   5.810802
    20  C    4.072158   4.518136   5.054046   5.793620   5.834086
    21  C    4.182786   4.881455   5.694383   6.064381   6.394369
    22  O    2.887400   3.330369   3.871227   4.896052   4.823224
    23  C    5.299652   5.507264   5.747700   6.627361   6.461116
    24  H    6.008922   5.963181   6.166281   6.741867   6.661768
    25  H    5.916411   6.398658   6.690390   7.658893   7.491859
    26  H    5.247580   5.271228   5.280435   6.429821   6.040996
    27  C    3.572048   2.469944   1.488240   3.715310   2.638514
    28  H    4.367547   3.209543   2.129793   4.132055   2.939894
    29  H    2.987512   2.599091   2.140702   4.362772   3.505349
    30  H    4.269614   3.166836   2.130321   4.149321   2.984368
    31  N    5.552787   6.243641   7.063672   7.216451   7.650049
    32  O    5.906357   6.723493   7.689160   7.623275   8.229076
    33  O    6.439993   6.987095   7.646523   7.887234   8.200922
    34  Cl   2.304142   4.369654   5.352343   6.437321   6.563933
    35  H    2.665365   3.278761   4.036980   4.771568   4.903083
    36  O    2.105765   3.017077   3.710003   4.857433   4.801920
    37  H    2.514018   3.867542   4.589922   5.792703   5.745609
                    6          7          8          9         10
     6  O    0.000000
     7  C    2.418091   0.000000
     8  H    2.497290   1.097626   0.000000
     9  H    3.151374   1.100662   1.801902   0.000000
    10  H    3.149945   1.100746   1.801018   1.761606   0.000000
    11  C    4.599094   6.427603   5.862202   6.867362   7.351495
    12  H    5.612731   7.512288   6.938251   7.966747   8.417762
    13  H    4.873304   6.352846   5.678738   6.696226   7.312157
    14  H    4.060504   5.970944   5.378888   6.565184   6.797140
    15  N    3.593522   3.263975   4.301522   3.301580   3.301949
    16  O    4.450126   4.466654   5.481443   4.489806   4.486666
    17  O    4.090217   2.951471   4.049091   2.770717   2.778560
    18  N    3.479013   5.643691   5.504198   6.021080   6.553947
    19  C    4.235604   6.169676   5.834085   6.481149   7.150193
    20  C    5.027748   6.750999   6.730449   6.782896   7.760354
    21  C    5.139975   6.847533   6.604040   6.948376   7.890302
    22  O    4.069303   6.034739   6.097527   6.218868   6.962888
    23  C    6.079617   7.580486   7.701129   7.445066   8.575549
    24  H    6.329399   7.523254   7.635702   7.242582   8.547844
    25  H    7.030039   8.628333   8.701713   8.520186   9.628221
    26  H    6.001190   7.495489   7.763080   7.359836   8.419559
    27  C    3.635296   5.163340   5.799214   5.541441   5.540395
    28  H    4.243085   5.500194   6.224838   5.669340   5.923798
    29  H    3.952863   5.842918   6.329765   6.284971   6.302244
    30  H    4.221996   5.525730   6.231989   5.972317   5.694947
    31  N    6.342239   7.817800   7.474233   7.819546   8.894064
    32  O    6.668683   8.093462   7.592847   8.166100   9.153596
    33  O    7.142764   8.490806   8.243145   8.361987   9.579723
    34  Cl   5.186203   7.580054   7.365408   8.273681   8.230572
    35  H    3.832677   5.811455   5.748850   6.773350   6.034147
    36  O    3.887277   6.061089   6.083053   6.933116   6.385413
    37  H    4.753632   6.982864   6.940237   7.849702   7.333944
                   11         12         13         14         15
    11  C    0.000000
    12  H    1.100917   0.000000
    13  H    1.098554   1.765462   0.000000
    14  H    1.096492   1.789274   1.806816   0.000000
    15  N    7.910234   8.899482   8.175467   7.533073   0.000000
    16  O    8.547162   9.473327   8.916656   8.200737   1.218938
    17  O    8.477496   9.518302   8.604331   8.100186   1.219194
    18  N    2.475207   3.136129   3.236522   2.610472   6.124868
    19  C    1.486886   2.124125   2.127726   2.138691   7.126331
    20  C    3.715960   4.152307   4.123384   4.363083   6.871374
    21  C    2.636991   3.008219   2.911433   3.500789   7.564899
    22  O    3.640546   4.202764   4.261070   3.960641   5.935970
    23  C    5.163253   5.532522   5.486424   5.842485   7.265399
    24  H    5.541749   5.991050   5.656685   6.276878   7.372674
    25  H    5.537138   5.699909   5.895786   6.305535   8.314739
    26  H    5.800207   6.228788   6.221047   6.331684   6.716525
    27  C    6.650920   7.385955   7.307710   6.303527   3.248840
    28  H    7.146953   7.890656   7.740571   6.941435   3.207597
    29  H    6.189989   6.800654   6.967383   5.868367   4.301698
    30  H    7.536122   8.260082   8.210459   7.083453   3.300942
    31  N    3.248040   3.362210   3.148747   4.295355   8.777244
    32  O    2.932512   2.872638   2.587423   4.020825   9.432470
    33  O    4.451703   4.545574   4.337938   5.479842   9.201834
    34  Cl   3.674905   3.609105   4.762248   3.265206   7.901518
    35  H    5.444894   5.940991   6.229399   4.512562   6.109933
    36  O    5.261443   5.711292   6.140272   4.456739   6.007826
    37  H    5.361137   5.624658   6.321721   4.584859   6.951198
                   16         17         18         19         20
    16  O    0.000000
    17  O    2.177091   0.000000
    18  N    6.525119   6.921010   0.000000
    19  C    7.634972   7.794363   1.323380   0.000000
    20  C    7.131164   7.625306   2.220151   2.258192   0.000000
    21  C    7.993276   8.217250   2.209736   1.425953   1.378782
    22  O    6.156878   6.798429   1.387490   2.208886   1.338134
    23  C    7.362835   8.019194   3.610806   3.728637   1.480390
    24  H    7.552251   7.988154   4.239428   4.190304   2.126606
    25  H    8.360745   9.100037   4.224329   4.185206   2.122690
    26  H    6.657723   7.550584   3.861798   4.317099   2.127933
    27  C    2.930193   4.452777   4.386389   5.677212   5.299513
    28  H    2.664865   4.393377   4.779528   6.018141   5.230256
    29  H    4.025187   5.486849   3.883845   5.205884   4.877891
    30  H    2.783426   4.487125   5.362016   6.660166   6.388987
    31  N    9.254018   9.330108   3.613804   2.571795   2.514806
    32  O   10.009579   9.921271   4.122200   2.860479   3.568170
    33  O    9.596980   9.747863   4.460269   3.618339   2.795630
    34  Cl   8.133630   8.830220   3.096025   3.597565   4.844637
    35  H    6.453196   6.904841   4.605740   5.487510   6.731167
    36  O    6.220627   6.925312   4.091765   5.091845   6.118358
    37  H    7.109326   7.892508   4.380209   5.278870   6.372851
                   21         22         23         24         25
    21  C    0.000000
    22  O    2.193386   0.000000
    23  C    2.635690   2.416808   0.000000
    24  H    2.983803   3.158342   1.100363   0.000000
    25  H    2.990815   3.139612   1.100976   1.762376   0.000000
    26  H    3.471113   2.495255   1.097555   1.803782   1.799038
    27  C    6.175828   4.074322   5.760696   6.333893   6.594121
    28  H    6.274697   4.160539   5.414091   5.907935   6.266966
    29  H    5.736475   3.600220   5.411694   6.141777   6.121350
    30  H    7.238160   5.144425   6.840586   7.416274   7.652173
    31  N    1.447078   3.593912   3.260599   3.283957   3.311743
    32  O    2.276101   4.453390   4.463324   4.472924   4.494058
    33  O    2.270271   4.086037   2.943211   2.740535   2.792300
    34  Cl   4.673810   3.999784   6.070410   6.947618   6.305797
    35  H    6.756975   5.518660   7.928417   8.614724   8.557148
    36  O    6.269737   4.870358   7.246935   8.004080   7.831072
    37  H    6.458445   5.188881   7.512997   8.345569   7.975559
                   26         27         28         29         30
    26  H    0.000000
    27  C    5.074989   0.000000
    28  H    4.599267   1.099360   0.000000
    29  H    4.764918   1.097658   1.801176   0.000000
    30  H    6.116481   1.100501   1.759789   1.798110   0.000000
    31  N    4.298241   7.587056   7.624486   7.170991   8.658733
    32  O    5.478713   8.339447   8.492574   7.913123   9.377247
    33  O    4.040559   8.053105   7.930880   7.669221   9.147898
    34  Cl   6.182278   5.451605   6.205638   4.570668   6.045894
    35  H    7.768541   4.457833   5.534929   4.104110   4.528508
    36  O    7.033393   3.887693   4.938156   3.353291   4.050059
    37  H    7.342895   4.614725   5.623010   3.913984   4.784325
                   31         32         33         34         35
    31  N    0.000000
    32  O    1.218303   0.000000
    33  O    1.219343   2.176718   0.000000
    34  Cl   5.799714   5.952712   6.735737   0.000000
    35  H    8.055374   8.214132   9.027107   3.525063   0.000000
    36  O    7.617189   7.884044   8.524286   2.939997   0.972974
    37  H    7.755642   7.972519   8.678397   2.459504   1.562931
                   36         37
    36  O    0.000000
    37  H    0.982837   0.000000
 Stoichiometry    C10H14ClN4O7Pt(1+)
 Framework group  C1[X(C10H14ClN4O7Pt)]
 Deg. of freedom   105
 Full point group                 C1      NOp   1
 Largest Abelian subgroup         C1      NOp   1
 Largest concise Abelian subgroup C1      NOp   1
                         Standard orientation:                         
 ---------------------------------------------------------------------
 Center     Atomic      Atomic             Coordinates (Angstroms)
 Number     Number       Type             X           Y           Z
 ---------------------------------------------------------------------
      1         78           0        0.088794   -1.407811   -0.019219
      2          7           0       -1.545568   -0.158256    0.195995
      3          6           0       -2.498491    0.253835   -0.623385
      4          6           0       -2.867059    1.160790    1.408842
      5          6           0       -3.367452    1.101707    0.124940
      6          8           0       -1.767379    0.400306    1.449737
      7          6           0       -3.285130    1.849465    2.651210
      8          1           0       -2.589105    1.619685    3.468236
      9          1           0       -3.326198    2.936515    2.483604
     10          1           0       -4.305038    1.540603    2.926954
     11          6           0        2.772981   -0.167486    1.912774
     12          1           0        3.727015   -0.699198    1.774502
     13          1           0        2.940944    0.587364    2.693036
     14          1           0        2.005353   -0.885673    2.224621
     15          7           0       -4.549646    1.781517   -0.357098
     16          8           0       -4.847648    1.608181   -1.526268
     17          8           0       -5.148893    2.472481    0.449070
     18          7           0        1.343441    0.134834   -0.085141
     19          6           0        2.388958    0.498547    0.640078
     20          6           0        2.271851    1.827013   -1.182255
     21          6           0        3.006153    1.589570   -0.039687
     22          8           0        1.265225    0.945746   -1.208277
     23          6           0        2.378004    2.793346   -2.298716
     24          1           0        2.362322    3.822912   -1.910714
     25          1           0        3.345893    2.668450   -2.808363
     26          1           0        1.558769    2.643177   -3.013508
     27          6           0       -2.566014   -0.153189   -2.053291
     28          1           0       -2.615519    0.738858   -2.693911
     29          1           0       -1.697732   -0.766716   -2.326284
     30          1           0       -3.492981   -0.716848   -2.238015
     31          7           0        4.179791    2.325708    0.378295
     32          8           0        4.712584    1.975204    1.416341
     33          8           0        4.536127    3.238363   -0.347573
     34         17           0        1.802538   -2.917696   -0.323186
     35          1           0       -1.494699   -3.373285    0.837305
     36          8           0       -1.114260   -3.136065   -0.026217
     37          1           0       -0.473050   -3.847711   -0.246165
 ---------------------------------------------------------------------
 Rotational constants (GHZ):           0.2332110           0.1320743           0.1017755
 General basis read from cards:  (5D, 7F)
 ======================================================================================================
                                       Pseudopotential Parameters
 ======================================================================================================
  Center     Atomic      Valence      Angular      Power
  Number     Number     Electrons     Momentum     of R      Exponent        Coefficient   SO-Coeffient
 ======================================================================================================
    1         78           18
                                      H and up 
                                                     2        1.0000000        0.00000000    0.00000000
                                      S - H
                                                     2       13.4286510      579.22386100    0.00000000
                                                     2        6.7143260       29.66949100    0.00000000
                                      P - H
                                                     2       10.3659440      280.86077400    0.00000000
                                                     2        5.1829720       26.74538200    0.00000000
                                      D - H
                                                     2        7.6004790      120.39644400    0.00000000
                                                     2        3.8002400       15.81092100    0.00000000
                                      F - H
                                                     2        3.3095690       24.31437600    0.00000000
                                      G - H
                                                     2        5.2772890      -24.21867500    0.00000000
    2          7
                                   No pseudopotential on this center.
    3          6
                                   No pseudopotential on this center.
    4          6
                                   No pseudopotential on this center.
    5          6
                                   No pseudopotential on this center.
    6          8
                                   No pseudopotential on this center.
    7          6
                                   No pseudopotential on this center.
    8          1
                                   No pseudopotential on this center.
    9          1
                                   No pseudopotential on this center.
   10          1
                                   No pseudopotential on this center.
   11          6
                                   No pseudopotential on this center.
   12          1
                                   No pseudopotential on this center.
   13          1
                                   No pseudopotential on this center.
   14          1
                                   No pseudopotential on this center.
   15          7
                                   No pseudopotential on this center.
   16          8
                                   No pseudopotential on this center.
   17          8
                                   No pseudopotential on this center.
   18          7
                                   No pseudopotential on this center.
   19          6
                                   No pseudopotential on this center.
   20          6
                                   No pseudopotential on this center.
   21          6
                                   No pseudopotential on this center.
   22          8
                                   No pseudopotential on this center.
   23          6
                                   No pseudopotential on this center.
   24          1
                                   No pseudopotential on this center.
   25          1
                                   No pseudopotential on this center.
   26          1
                                   No pseudopotential on this center.
   27          6
                                   No pseudopotential on this center.
   28          1
                                   No pseudopotential on this center.
   29          1
                                   No pseudopotential on this center.
   30          1
                                   No pseudopotential on this center.
   31          7
                                   No pseudopotential on this center.
   32          8
                                   No pseudopotential on this center.
   33          8
                                   No pseudopotential on this center.
   34         17
                                   No pseudopotential on this center.
   35          1
                                   No pseudopotential on this center.
   36          8
                                   No pseudopotential on this center.
   37          1
                                   No pseudopotential on this center.
 ======================================================================================================
 There are   441 symmetry adapted cartesian basis functions of A   symmetry.
 There are   414 symmetry adapted basis functions of A   symmetry.
   414 basis functions,   725 primitive gaussians,   441 cartesian basis functions
    96 alpha electrons       96 beta electrons
       nuclear repulsion energy      2449.4773980476 Hartrees.
 NAtoms=   37 NActive=   37 NUniq=   37 SFac= 1.00D+00 NAtFMM=   60 NAOKFM=F Big=F
 Integral buffers will be    131072 words long.
 Raffenetti 2 integral format.
 Two-electron integral symmetry is turned on.
 One-electron integrals computed using PRISM.
   1 Symmetry operations used in ECPInt.
 ECPInt:  NShTT=   17766 NPrTT=   64971 LenC2=   15380 LenP2D=   37666.
 LDataN:  DoStor=T MaxTD1= 8 Len=  415
 Number of processors reduced to  29 by ecpmxn.
 NBasis=   414 RedAO= T EigKep=  5.91D-04  NBF=   414
 NBsUse=   414 1.00D-06 EigRej= -1.00D+00 NBFU=   414
 Defaulting to unpruned grid for atomic number  78.
 Initial guess from the checkpoint file:  "CIX_small_opt.chk"
 B after Tr=     0.000000    0.000000    0.000000
         Rot=    1.000000   -0.000000   -0.000000   -0.000000 Ang=   0.00 deg.
 Requested convergence on RMS density matrix=1.00D-08 within  32 cycles.
 Requested convergence on MAX density matrix=1.00D-06.
 Requested convergence on             energy=1.00D-06.
 No special actions if energy rises.
 Defaulting to unpruned grid for atomic number  78.
 Defaulting to unpruned grid for atomic number  78.
 Defaulting to unpruned grid for atomic number  78.
 Defaulting to unpruned grid for atomic number  78.
 Defaulting to unpruned grid for atomic number  78.
 Defaulting to unpruned grid for atomic number  78.
 Defaulting to unpruned grid for atomic number  78.
 Defaulting to unpruned grid for atomic number  78.
 Defaulting to unpruned grid for atomic number  78.
 Defaulting to unpruned grid for atomic number  78.
 Defaulting to unpruned grid for atomic number  78.
 Defaulting to unpruned grid for atomic number  78.
 Defaulting to unpruned grid for atomic number  78.
 Defaulting to unpruned grid for atomic number  78.
 Defaulting to unpruned grid for atomic number  78.
 Defaulting to unpruned grid for atomic number  78.
 Defaulting to unpruned grid for atomic number  78.
 Defaulting to unpruned grid for atomic number  78.
 Defaulting to unpruned grid for atomic number  78.
 Defaulting to unpruned grid for atomic number  78.
 Defaulting to unpruned grid for atomic number  78.
 Defaulting to unpruned grid for atomic number  78.
 Defaulting to unpruned grid for atomic number  78.
 Defaulting to unpruned grid for atomic number  78.
 Defaulting to unpruned grid for atomic number  78.
 Defaulting to unpruned grid for atomic number  78.
 Defaulting to unpruned grid for atomic number  78.
 Defaulting to unpruned grid for atomic number  78.
 Defaulting to unpruned grid for atomic number  78.
 Defaulting to unpruned grid for atomic number  78.
 Defaulting to unpruned grid for atomic number  78.
 Defaulting to unpruned grid for atomic number  78.
 Defaulting to unpruned grid for atomic number  78.
 Defaulting to unpruned grid for atomic number  78.
 Defaulting to unpruned grid for atomic number  78.
 Defaulting to unpruned grid for atomic number  78.
 Defaulting to unpruned grid for atomic number  78.
 Defaulting to unpruned grid for atomic number  78.
 Defaulting to unpruned grid for atomic number  78.
 Defaulting to unpruned grid for atomic number  78.
 Defaulting to unpruned grid for atomic number  78.
 Defaulting to unpruned grid for atomic number  78.
 Defaulting to unpruned grid for atomic number  78.
 Defaulting to unpruned grid for atomic number  78.
 Defaulting to unpruned grid for atomic number  78.
 Defaulting to unpruned grid for atomic number  78.
 Defaulting to unpruned grid for atomic number  78.
 Defaulting to unpruned grid for atomic number  78.
 SCF Done:  E(RB3LYP) =  -1713.26442780     A.U. after    1 cycles
            NFock=  1  Conv=0.55D-08     -V/T= 2.0551
 QCSCF skips out because SCF is already converged.
 DoSCS=F DFT=T ScalE2(SS,OS)=  1.000000  1.000000
 Range of M.O.s used for correlation:     1   414
 NBasis=   414 NAE=    96 NBE=    96 NFC=     0 NFV=     0
 NROrb=    414 NOA=    96 NOB=    96 NVA=   318 NVB=   318
 PrsmSu:  requested number of processors reduced to:  45 ShMem   1 Linda.
 PrsmSu:  requested number of processors reduced to:  26 ShMem   1 Linda.
   1 Symmetry operations used in ECPInt.
 ECPInt:  NShTT=   17766 NPrTT=   64971 LenC2=   15380 LenP2D=   37666.
 LDataN:  DoStor=T MaxTD1= 9 Len=  602
 Number of processors reduced to   5 by ecpmxn.
 Symmetrizing basis deriv contribution to polar:
 IMax=3 JMax=2 DiffMx= 0.00D+00
 G2DrvN: will do    13 centers at a time, making    3 passes.
 Calling FoFCou, ICntrl=  3107 FMM=F I1Cent=   0 AccDes= 0.00D+00.
 Defaulting to unpruned grid for atomic number  78.
 Defaulting to unpruned grid for atomic number  78.
 Defaulting to unpruned grid for atomic number  78.
 Defaulting to unpruned grid for atomic number  78.
 Defaulting to unpruned grid for atomic number  78.
 Defaulting to unpruned grid for atomic number  78.
 Defaulting to unpruned grid for atomic number  78.
 Defaulting to unpruned grid for atomic number  78.
 Defaulting to unpruned grid for atomic number  78.
 Defaulting to unpruned grid for atomic number  78.
 Defaulting to unpruned grid for atomic number  78.
 Defaulting to unpruned grid for atomic number  78.
 Defaulting to unpruned grid for atomic number  78.
 Defaulting to unpruned grid for atomic number  78.
 Defaulting to unpruned grid for atomic number  78.
 Defaulting to unpruned grid for atomic number  78.
 Defaulting to unpruned grid for atomic number  78.
 Defaulting to unpruned grid for atomic number  78.
 Defaulting to unpruned grid for atomic number  78.
 Defaulting to unpruned grid for atomic number  78.
 Defaulting to unpruned grid for atomic number  78.
 Defaulting to unpruned grid for atomic number  78.
 Defaulting to unpruned grid for atomic number  78.
 Defaulting to unpruned grid for atomic number  78.
 Defaulting to unpruned grid for atomic number  78.
 Defaulting to unpruned grid for atomic number  78.
 Defaulting to unpruned grid for atomic number  78.
 Defaulting to unpruned grid for atomic number  78.
 Defaulting to unpruned grid for atomic number  78.
 Defaulting to unpruned grid for atomic number  78.
 Defaulting to unpruned grid for atomic number  78.
 Defaulting to unpruned grid for atomic number  78.
 Defaulting to unpruned grid for atomic number  78.
 Defaulting to unpruned grid for atomic number  78.
 Defaulting to unpruned grid for atomic number  78.
 Defaulting to unpruned grid for atomic number  78.
 Defaulting to unpruned grid for atomic number  78.
 Defaulting to unpruned grid for atomic number  78.
 Defaulting to unpruned grid for atomic number  78.
 Defaulting to unpruned grid for atomic number  78.
 Defaulting to unpruned grid for atomic number  78.
 Defaulting to unpruned grid for atomic number  78.
 Defaulting to unpruned grid for atomic number  78.
 Defaulting to unpruned grid for atomic number  78.
 Defaulting to unpruned grid for atomic number  78.
 Defaulting to unpruned grid for atomic number  78.
 Defaulting to unpruned grid for atomic number  78.
 Defaulting to unpruned grid for atomic number  78.
 Calling FoFCou, ICntrl=  3107 FMM=F I1Cent=   0 AccDes= 0.00D+00.
 Calling FoFCou, ICntrl=  3107 FMM=F I1Cent=   0 AccDes= 0.00D+00.
 End of G2Drv F.D. properties file   721 does not exist.
 End of G2Drv F.D. properties file   722 does not exist.
 End of G2Drv F.D. properties file   788 does not exist.
          IDoAtm=1111111111111111111111111111111111111
          Differentiating once with respect to electric field.
                with respect to dipole field.
          Differentiating once with respect to nuclear coordinates.
 Defaulting to unpruned grid for atomic number  78.
 CalDSu exits because no D1Ps are significant.
 Defaulting to unpruned grid for atomic number  78.
 Defaulting to unpruned grid for atomic number  78.
 Defaulting to unpruned grid for atomic number  78.
 Defaulting to unpruned grid for atomic number  78.
 Defaulting to unpruned grid for atomic number  78.
 Defaulting to unpruned grid for atomic number  78.
 Defaulting to unpruned grid for atomic number  78.
 Defaulting to unpruned grid for atomic number  78.
 Defaulting to unpruned grid for atomic number  78.
 Defaulting to unpruned grid for atomic number  78.
 Defaulting to unpruned grid for atomic number  78.
 Defaulting to unpruned grid for atomic number  78.
 Defaulting to unpruned grid for atomic number  78.
 Defaulting to unpruned grid for atomic number  78.
 Defaulting to unpruned grid for atomic number  78.
 Defaulting to unpruned grid for atomic number  78.
 Defaulting to unpruned grid for atomic number  78.
 Defaulting to unpruned grid for atomic number  78.
 Defaulting to unpruned grid for atomic number  78.
 Defaulting to unpruned grid for atomic number  78.
 Defaulting to unpruned grid for atomic number  78.
 Defaulting to unpruned grid for atomic number  78.
 Defaulting to unpruned grid for atomic number  78.
 Defaulting to unpruned grid for atomic number  78.
 Defaulting to unpruned grid for atomic number  78.
 Defaulting to unpruned grid for atomic number  78.
 Defaulting to unpruned grid for atomic number  78.
 Defaulting to unpruned grid for atomic number  78.
 Defaulting to unpruned grid for atomic number  78.
 Defaulting to unpruned grid for atomic number  78.
 Defaulting to unpruned grid for atomic number  78.
 Defaulting to unpruned grid for atomic number  78.
 Defaulting to unpruned grid for atomic number  78.
 Defaulting to unpruned grid for atomic number  78.
 Defaulting to unpruned grid for atomic number  78.
 Defaulting to unpruned grid for atomic number  78.
 Defaulting to unpruned grid for atomic number  78.
 Defaulting to unpruned grid for atomic number  78.
 Defaulting to unpruned grid for atomic number  78.
 Defaulting to unpruned grid for atomic number  78.
 Defaulting to unpruned grid for atomic number  78.
 Defaulting to unpruned grid for atomic number  78.
 Defaulting to unpruned grid for atomic number  78.
 Defaulting to unpruned grid for atomic number  78.
 Defaulting to unpruned grid for atomic number  78.
 Defaulting to unpruned grid for atomic number  78.
 Defaulting to unpruned grid for atomic number  78.
 Defaulting to unpruned grid for atomic number  78.
          There are   114 degrees of freedom in the 1st order CPHF.  IDoFFX=6 NUNeed=     3.
    114 vectors produced by pass  0 Test12= 3.05D-14 1.00D-09 XBig12= 2.35D+02 5.38D+00.
 AX will form    19 AO Fock derivatives at one time.
    114 vectors produced by pass  1 Test12= 3.05D-14 1.00D-09 XBig12= 1.80D+02 4.67D+00.
    114 vectors produced by pass  2 Test12= 3.05D-14 1.00D-09 XBig12= 9.97D-01 1.14D-01.
    111 vectors produced by pass  3 Test12= 3.05D-14 1.00D-09 XBig12= 4.86D-03 9.77D-03.
    111 vectors produced by pass  4 Test12= 3.05D-14 1.00D-09 XBig12= 1.68D-05 6.90D-04.
    110 vectors produced by pass  5 Test12= 3.05D-14 1.00D-09 XBig12= 2.47D-08 2.03D-05.
     36 vectors produced by pass  6 Test12= 3.05D-14 1.00D-09 XBig12= 2.47D-11 5.83D-07.
      3 vectors produced by pass  7 Test12= 3.05D-14 1.00D-09 XBig12= 2.49D-14 1.76D-08.
 InvSVY:  IOpt=1 It=  1 EMax= 2.13D-14
 Solved reduced A of dimension   713 with   114 vectors.
 Isotropic polarizability for W=    0.000000      206.61 Bohr**3.
 End of Minotr F.D. properties file   721 does not exist.
 End of Minotr F.D. properties file   722 does not exist.
 End of Minotr F.D. properties file   788 does not exist.

 **********************************************************************

            Population analysis using the SCF Density.

 **********************************************************************

 Orbital symmetries:
       Occupied  (A) (A) (A) (A) (A) (A) (A) (A) (A) (A) (A) (A)
                 (A) (A) (A) (A) (A) (A) (A) (A) (A) (A) (A) (A)
                 (A) (A) (A) (A) (A) (A) (A) (A) (A) (A) (A) (A)
                 (A) (A) (A) (A) (A) (A) (A) (A) (A) (A) (A) (A)
                 (A) (A) (A) (A) (A) (A) (A) (A) (A) (A) (A) (A)
                 (A) (A) (A) (A) (A) (A) (A) (A) (A) (A) (A) (A)
                 (A) (A) (A) (A) (A) (A) (A) (A) (A) (A) (A) (A)
                 (A) (A) (A) (A) (A) (A) (A) (A) (A) (A) (A) (A)
       Virtual   (A) (A) (A) (A) (A) (A) (A) (A) (A) (A) (A) (A)
                 (A) (A) (A) (A) (A) (A) (A) (A) (A) (A) (A) (A)
                 (A) (A) (A) (A) (A) (A) (A) (A) (A) (A) (A) (A)
                 (A) (A) (A) (A) (A) (A) (A) (A) (A) (A) (A) (A)
                 (A) (A) (A) (A) (A) (A) (A) (A) (A) (A) (A) (A)
                 (A) (A) (A) (A) (A) (A) (A) (A) (A) (A) (A) (A)
                 (A) (A) (A) (A) (A) (A) (A) (A) (A) (A) (A) (A)
                 (A) (A) (A) (A) (A) (A) (A) (A) (A) (A) (A) (A)
                 (A) (A) (A) (A) (A) (A) (A) (A) (A) (A) (A) (A)
                 (A) (A) (A) (A) (A) (A) (A) (A) (A) (A) (A) (A)
                 (A) (A) (A) (A) (A) (A) (A) (A) (A) (A) (A) (A)
                 (A) (A) (A) (A) (A) (A) (A) (A) (A) (A) (A) (A)
                 (A) (A) (A) (A) (A) (A) (A) (A) (A) (A) (A) (A)
                 (A) (A) (A) (A) (A) (A) (A) (A) (A) (A) (A) (A)
                 (A) (A) (A) (A) (A) (A) (A) (A) (A) (A) (A) (A)
                 (A) (A) (A) (A) (A) (A) (A) (A) (A) (A) (A) (A)
                 (A) (A) (A) (A) (A) (A) (A) (A) (A) (A) (A) (A)
                 (A) (A) (A) (A) (A) (A) (A) (A) (A) (A) (A) (A)
                 (A) (A) (A) (A) (A) (A) (A) (A) (A) (A) (A) (A)
                 (A) (A) (A) (A) (A) (A) (A) (A) (A) (A) (A) (A)
                 (A) (A) (A) (A) (A) (A) (A) (A) (A) (A) (A) (A)
                 (A) (A) (A) (A) (A) (A) (A) (A) (A) (A) (A) (A)
                 (A) (A) (A) (A) (A) (A) (A) (A) (A) (A) (A) (A)
                 (A) (A) (A) (A) (A) (A) (A) (A) (A) (A) (A) (A)
                 (A) (A) (A) (A) (A) (A) (A) (A) (A) (A) (A) (A)
                 (A) (A) (A) (A) (A) (A) (A) (A) (A) (A) (A) (A)
                 (A) (A) (A) (A) (A) (A)
 The electronic state is 1-A.
 Alpha  occ. eigenvalues -- -101.59146 -19.40624 -19.40568 -19.36784 -19.29065
 Alpha  occ. eigenvalues --  -19.29029 -19.28687 -19.28634 -14.69652 -14.69276
 Alpha  occ. eigenvalues --  -14.59204 -14.58584 -10.44536 -10.44304 -10.42238
 Alpha  occ. eigenvalues --  -10.42102 -10.39409 -10.39105 -10.34370 -10.34079
 Alpha  occ. eigenvalues --  -10.34061 -10.33341  -9.54361  -7.31079  -7.30405
 Alpha  occ. eigenvalues --   -7.30343  -4.10789  -2.36634  -2.36023  -2.31956
 Alpha  occ. eigenvalues --   -1.35506  -1.35138  -1.32951  -1.32839  -1.21521
 Alpha  occ. eigenvalues --   -1.18201  -1.17827  -1.06641  -1.06531  -1.00025
 Alpha  occ. eigenvalues --   -0.99839  -0.90128  -0.89896  -0.89575  -0.87757
 Alpha  occ. eigenvalues --   -0.87452  -0.85110  -0.84905  -0.76584  -0.76506
 Alpha  occ. eigenvalues --   -0.74355  -0.73431  -0.73288  -0.68554  -0.68386
 Alpha  occ. eigenvalues --   -0.68247  -0.68090  -0.66439  -0.65964  -0.65439
 Alpha  occ. eigenvalues --   -0.64750  -0.63489  -0.63007  -0.62563  -0.59967
 Alpha  occ. eigenvalues --   -0.59348  -0.58379  -0.58076  -0.57465  -0.57288
 Alpha  occ. eigenvalues --   -0.57133  -0.57002  -0.55612  -0.55522  -0.55096
 Alpha  occ. eigenvalues --   -0.54762  -0.54349  -0.53255  -0.52637  -0.50652
 Alpha  occ. eigenvalues --   -0.47698  -0.47208  -0.46342  -0.45685  -0.44346
 Alpha  occ. eigenvalues --   -0.43843  -0.43746  -0.43466  -0.43441  -0.43355
 Alpha  occ. eigenvalues --   -0.42499  -0.42167  -0.42070  -0.40533  -0.39389
 Alpha  occ. eigenvalues --   -0.38395
 Alpha virt. eigenvalues --   -0.21308  -0.21018  -0.20864  -0.19087  -0.18611
 Alpha virt. eigenvalues --   -0.12830  -0.11668  -0.09633  -0.09229  -0.07736
 Alpha virt. eigenvalues --   -0.06362  -0.06036  -0.04933  -0.04638  -0.03868
 Alpha virt. eigenvalues --   -0.03426  -0.02903  -0.02010  -0.01435  -0.00542
 Alpha virt. eigenvalues --    0.01019   0.01387   0.01674   0.02017   0.02267
 Alpha virt. eigenvalues --    0.03248   0.03657   0.03877   0.05342   0.06033
 Alpha virt. eigenvalues --    0.07743   0.08096   0.08753   0.09182   0.10812
 Alpha virt. eigenvalues --    0.12387   0.12822   0.13293   0.15516   0.15911
 Alpha virt. eigenvalues --    0.16519   0.18698   0.20339   0.21803   0.24411
 Alpha virt. eigenvalues --    0.24991   0.25421   0.25953   0.26751   0.29597
 Alpha virt. eigenvalues --    0.29929   0.30426   0.30700   0.32177   0.32263
 Alpha virt. eigenvalues --    0.33402   0.33895   0.34419   0.34871   0.35623
 Alpha virt. eigenvalues --    0.36264   0.36428   0.37741   0.39405   0.39874
 Alpha virt. eigenvalues --    0.40655   0.42198   0.42992   0.43330   0.44098
 Alpha virt. eigenvalues --    0.44651   0.45275   0.46025   0.46101   0.46665
 Alpha virt. eigenvalues --    0.47373   0.47828   0.48044   0.48794   0.50391
 Alpha virt. eigenvalues --    0.51452   0.52219   0.52262   0.52745   0.52840
 Alpha virt. eigenvalues --    0.53194   0.53328   0.53694   0.54027   0.54524
 Alpha virt. eigenvalues --    0.54571   0.55334   0.56890   0.57291   0.58057
 Alpha virt. eigenvalues --    0.58240   0.59270   0.59785   0.60873   0.62421
 Alpha virt. eigenvalues --    0.62867   0.64240   0.66973   0.68146   0.68896
 Alpha virt. eigenvalues --    0.69366   0.70275   0.70600   0.72237   0.74528
 Alpha virt. eigenvalues --    0.75532   0.75962   0.76905   0.77095   0.77638
 Alpha virt. eigenvalues --    0.78033   0.78736   0.79696   0.80263   0.80956
 Alpha virt. eigenvalues --    0.82194   0.82903   0.84349   0.85886   0.86315
 Alpha virt. eigenvalues --    0.87188   0.87541   0.88820   0.89131   0.91461
 Alpha virt. eigenvalues --    0.92094   0.92481   0.92747   0.94438   0.95944
 Alpha virt. eigenvalues --    0.96659   0.97340   0.97980   0.98407   0.99596
 Alpha virt. eigenvalues --    1.01367   1.02418   1.03394   1.03678   1.05115
 Alpha virt. eigenvalues --    1.05934   1.08957   1.09471   1.09707   1.11029
 Alpha virt. eigenvalues --    1.11789   1.15903   1.17435   1.17632   1.20148
 Alpha virt. eigenvalues --    1.20909   1.22078   1.22534   1.22935   1.23783
 Alpha virt. eigenvalues --    1.25592   1.26739   1.27098   1.27725   1.29431
 Alpha virt. eigenvalues --    1.31421   1.34245   1.34722   1.35053   1.35746
 Alpha virt. eigenvalues --    1.36378   1.37540   1.38230   1.38464   1.38861
 Alpha virt. eigenvalues --    1.39813   1.40356   1.41299   1.42325   1.43373
 Alpha virt. eigenvalues --    1.43467   1.44596   1.45147   1.45638   1.47770
 Alpha virt. eigenvalues --    1.50847   1.51752   1.54909   1.58013   1.58810
 Alpha virt. eigenvalues --    1.61197   1.62563   1.63515   1.63827   1.64074
 Alpha virt. eigenvalues --    1.64189   1.64566   1.64765   1.65000   1.65241
 Alpha virt. eigenvalues --    1.65627   1.66345   1.67498   1.68285   1.68533
 Alpha virt. eigenvalues --    1.69177   1.69802   1.72922   1.73872   1.73928
 Alpha virt. eigenvalues --    1.74811   1.75994   1.76825   1.79895   1.81979
 Alpha virt. eigenvalues --    1.82502   1.84812   1.85336   1.85571   1.90488
 Alpha virt. eigenvalues --    1.90879   1.91270   1.91749   1.93007   1.96112
 Alpha virt. eigenvalues --    1.96884   1.98679   2.00073   2.00712   2.05588
 Alpha virt. eigenvalues --    2.05961   2.07143   2.09820   2.11554   2.12883
 Alpha virt. eigenvalues --    2.13639   2.14326   2.16220   2.19055   2.20472
 Alpha virt. eigenvalues --    2.20506   2.20802   2.21212   2.22927   2.23348
 Alpha virt. eigenvalues --    2.25813   2.26793   2.27122   2.28079   2.28521
 Alpha virt. eigenvalues --    2.29013   2.31757   2.32214   2.33112   2.34927
 Alpha virt. eigenvalues --    2.35340   2.40315   2.41408   2.46185   2.47839
 Alpha virt. eigenvalues --    2.48247   2.50865   2.51263   2.55180   2.55369
 Alpha virt. eigenvalues --    2.55858   2.56020   2.56242   2.56396   2.58055
 Alpha virt. eigenvalues --    2.58454   2.60671   2.61389   2.64946   2.65417
 Alpha virt. eigenvalues --    2.68870   2.69402   2.72258   2.72605   2.75240
 Alpha virt. eigenvalues --    2.75507   2.75939   2.77985   2.78353   2.78758
 Alpha virt. eigenvalues --    2.78967   2.79520   2.81303   2.82209   2.82284
 Alpha virt. eigenvalues --    2.82713   2.92300   2.92404   2.92691   2.93076
 Alpha virt. eigenvalues --    2.94749   2.99769   3.00734   3.07655   3.08674
 Alpha virt. eigenvalues --    3.15434   3.16033   3.17207   3.17653   3.22906
 Alpha virt. eigenvalues --    3.23616   3.30664   3.33149   3.33535   3.53121
 Alpha virt. eigenvalues --    3.54575   3.62664   3.65196   3.65645   3.66631
 Alpha virt. eigenvalues --    3.67114  50.72257 279.99070
          Condensed to atoms (all electrons):
               1          2          3          4          5          6
     1  Pt  17.136113   0.083116  -0.046843  -0.003829   0.006805   0.005577
     2  N    0.083116   6.635549   0.445665  -0.119284  -0.006018   0.185531
     3  C   -0.046843   0.445665   5.076892  -0.047963   0.251156  -0.104049
     4  C   -0.003829  -0.119284  -0.047963   5.064907   0.294442   0.347559
     5  C    0.006805  -0.006018   0.251156   0.294442   5.406664  -0.032661
     6  O    0.005577   0.185531  -0.104049   0.347559  -0.032661   7.771085
     7  C   -0.000798   0.004706   0.007957   0.444333  -0.050540  -0.035707
     8  H    0.000492   0.000094  -0.000735  -0.010295   0.016083  -0.000511
     9  H    0.000038  -0.000105   0.000601   0.005385  -0.010407   0.001224
    10  H    0.000027  -0.000099   0.000656   0.005158  -0.010257   0.001175
    11  C    0.004213   0.000079   0.000013   0.000003  -0.000000  -0.000018
    12  H    0.000653   0.000002   0.000000   0.000000   0.000000  -0.000000
    13  H    0.000582  -0.000002   0.000000  -0.000001   0.000000  -0.000004
    14  H   -0.003065  -0.000131  -0.000028  -0.000008   0.000001  -0.000260
    15  N   -0.000084   0.003055  -0.027773  -0.030946   0.295852   0.002037
    16  O    0.000046   0.000094  -0.026089   0.003314  -0.060310  -0.000022
    17  O    0.000070   0.000006   0.003253  -0.027974  -0.062538  -0.000000
    18  N    0.131125  -0.006608   0.000387   0.000238  -0.000224  -0.000307
    19  C   -0.043131  -0.000136  -0.000067   0.000016  -0.000007   0.000032
    20  C   -0.003180   0.000191   0.000106   0.000015  -0.000003  -0.000021
    21  C    0.004438  -0.000136  -0.000041  -0.000006   0.000003   0.000003
    22  O   -0.002600  -0.000718   0.000932   0.000013  -0.000146  -0.000021
    23  C   -0.000827   0.000005  -0.000000  -0.000000   0.000000   0.000000
    24  H    0.000088  -0.000000  -0.000000  -0.000000   0.000000   0.000000
    25  H    0.000008   0.000000  -0.000000   0.000000   0.000000  -0.000000
    26  H    0.000361  -0.000005   0.000011  -0.000000  -0.000001  -0.000000
    27  C    0.005317  -0.035622   0.436550   0.012630  -0.044563   0.003136
    28  H    0.000045   0.002210   0.009073   0.000484  -0.009703  -0.000076
    29  H   -0.006062  -0.008558  -0.005575  -0.000258   0.013388  -0.000202
    30  H   -0.000155   0.001048   0.007826   0.000364  -0.007532  -0.000069
    31  N   -0.000035   0.000000  -0.000000  -0.000000   0.000000   0.000000
    32  O    0.000041  -0.000000  -0.000000  -0.000000  -0.000000  -0.000000
    33  O    0.000084  -0.000000   0.000000  -0.000000  -0.000000  -0.000000
    34  Cl   0.267126  -0.002012  -0.000045  -0.000001  -0.000000   0.000008
    35  H   -0.024310   0.000196   0.000368  -0.000006   0.000023  -0.000108
    36  O    0.176217  -0.002621  -0.001222  -0.000023   0.000019  -0.000017
    37  H   -0.025829   0.000267  -0.000066   0.000007  -0.000002  -0.000006
               7          8          9         10         11         12
     1  Pt  -0.000798   0.000492   0.000038   0.000027   0.004213   0.000653
     2  N    0.004706   0.000094  -0.000105  -0.000099   0.000079   0.000002
     3  C    0.007957  -0.000735   0.000601   0.000656   0.000013   0.000000
     4  C    0.444333  -0.010295   0.005385   0.005158   0.000003   0.000000
     5  C   -0.050540   0.016083  -0.010407  -0.010257  -0.000000   0.000000
     6  O   -0.035707  -0.000511   0.001224   0.001175  -0.000018  -0.000000
     7  C    4.397951   0.357615   0.373753   0.374496  -0.000000   0.000000
     8  H    0.357615   0.606799  -0.014021  -0.013822   0.000000  -0.000000
     9  H    0.373753  -0.014021   0.566170  -0.012285   0.000000  -0.000000
    10  H    0.374496  -0.013822  -0.012285   0.563949   0.000000   0.000000
    11  C   -0.000000   0.000000   0.000000   0.000000   4.395803   0.365336
    12  H    0.000000  -0.000000  -0.000000   0.000000   0.365336   0.564780
    13  H   -0.000000  -0.000000  -0.000000   0.000000   0.362988  -0.011105
    14  H    0.000001  -0.000003  -0.000000   0.000000   0.360714  -0.012200
    15  N   -0.005795   0.000053  -0.000123  -0.000154  -0.000000  -0.000000
    16  O    0.000180   0.000006  -0.000014  -0.000017   0.000000   0.000000
    17  O    0.015597   0.000701   0.004731   0.004534  -0.000000   0.000000
    18  N    0.000003  -0.000001  -0.000000  -0.000000  -0.035947   0.000192
    19  C    0.000001   0.000000  -0.000000  -0.000000   0.445143   0.009928
    20  C   -0.000000  -0.000000  -0.000000   0.000000   0.012857   0.000221
    21  C   -0.000000   0.000000   0.000000  -0.000000  -0.048260  -0.006007
    22  O    0.000000  -0.000000   0.000000  -0.000000   0.002825  -0.000063
    23  C    0.000000  -0.000000   0.000000  -0.000000  -0.000257   0.000007
    24  H    0.000000  -0.000000   0.000000  -0.000000   0.000011   0.000001
    25  H   -0.000000   0.000000  -0.000000   0.000000   0.000008  -0.000003
    26  H    0.000000  -0.000000   0.000000   0.000000  -0.000002  -0.000000
    27  C   -0.000262  -0.000002   0.000010   0.000009  -0.000000   0.000000
    28  H    0.000007  -0.000000  -0.000005   0.000002  -0.000000  -0.000000
    29  H    0.000001  -0.000001  -0.000000  -0.000000   0.000002   0.000000
    30  H    0.000008  -0.000000   0.000002  -0.000004   0.000000   0.000000
    31  N   -0.000000   0.000000   0.000000  -0.000000  -0.007583   0.000094
    32  O    0.000000  -0.000000   0.000000  -0.000000   0.013119   0.002763
    33  O    0.000000  -0.000000   0.000000   0.000000   0.000162  -0.000014
    34  Cl   0.000000   0.000000  -0.000000  -0.000000   0.003402   0.001260
    35  H    0.000000  -0.000001  -0.000000   0.000000   0.000005  -0.000000
    36  O   -0.000000  -0.000000   0.000000  -0.000000   0.000018  -0.000000
    37  H   -0.000000   0.000000   0.000000  -0.000000  -0.000011  -0.000002
              13         14         15         16         17         18
     1  Pt   0.000582  -0.003065  -0.000084   0.000046   0.000070   0.131125
     2  N   -0.000002  -0.000131   0.003055   0.000094   0.000006  -0.006608
     3  C    0.000000  -0.000028  -0.027773  -0.026089   0.003253   0.000387
     4  C   -0.000001  -0.000008  -0.030946   0.003314  -0.027974   0.000238
     5  C    0.000000   0.000001   0.295852  -0.060310  -0.062538  -0.000224
     6  O   -0.000004  -0.000260   0.002037  -0.000022  -0.000000  -0.000307
     7  C   -0.000000   0.000001  -0.005795   0.000180   0.015597   0.000003
     8  H   -0.000000  -0.000003   0.000053   0.000006   0.000701  -0.000001
     9  H   -0.000000  -0.000000  -0.000123  -0.000014   0.004731  -0.000000
    10  H    0.000000   0.000000  -0.000154  -0.000017   0.004534  -0.000000
    11  C    0.362988   0.360714  -0.000000   0.000000  -0.000000  -0.035947
    12  H   -0.011105  -0.012200  -0.000000   0.000000   0.000000   0.000192
    13  H    0.587767  -0.017114   0.000000  -0.000000  -0.000000   0.002821
    14  H   -0.017114   0.606269   0.000000  -0.000000  -0.000000  -0.008029
    15  N    0.000000   0.000000   5.928291   0.291108   0.297528  -0.000000
    16  O   -0.000000  -0.000000   0.291108   8.067372  -0.086047   0.000000
    17  O   -0.000000  -0.000000   0.297528  -0.086047   8.066470   0.000000
    18  N    0.002821  -0.008029  -0.000000   0.000000   0.000000   6.570454
    19  C    0.008999  -0.004063   0.000000  -0.000000  -0.000000   0.428953
    20  C    0.000623  -0.000308  -0.000000  -0.000000  -0.000000  -0.120455
    21  C   -0.012790   0.013891   0.000000   0.000000   0.000000   0.001372
    22  O   -0.000083  -0.000143  -0.000000  -0.000000   0.000000   0.192931
    23  C    0.000009   0.000001   0.000000   0.000000  -0.000000   0.004681
    24  H   -0.000006  -0.000000   0.000000   0.000000   0.000000  -0.000112
    25  H    0.000002  -0.000000  -0.000000  -0.000000   0.000000  -0.000086
    26  H   -0.000000  -0.000001   0.000000  -0.000000  -0.000000   0.000123
    27  C   -0.000000   0.000001  -0.007419   0.014273   0.000172   0.000031
    28  H    0.000000  -0.000000  -0.000266   0.006641  -0.000024  -0.000007
    29  H    0.000000  -0.000004   0.000040   0.000845   0.000005   0.000061
    30  H   -0.000000  -0.000000  -0.000038   0.004156  -0.000018   0.000001
    31  N   -0.000494   0.000038   0.000000   0.000000   0.000000   0.002965
    32  O    0.008556   0.000829   0.000000  -0.000000  -0.000000   0.000099
    33  O   -0.000019   0.000006  -0.000000  -0.000000   0.000000   0.000008
    34  Cl   0.000171  -0.002453   0.000000  -0.000000  -0.000000  -0.002669
    35  H    0.000000  -0.000040   0.000000  -0.000000  -0.000000   0.000167
    36  O    0.000000  -0.000236   0.000000  -0.000000   0.000000  -0.001224
    37  H   -0.000001   0.000003  -0.000000   0.000000   0.000000   0.000267
              19         20         21         22         23         24
     1  Pt  -0.043131  -0.003180   0.004438  -0.002600  -0.000827   0.000088
     2  N   -0.000136   0.000191  -0.000136  -0.000718   0.000005  -0.000000
     3  C   -0.000067   0.000106  -0.000041   0.000932  -0.000000  -0.000000
     4  C    0.000016   0.000015  -0.000006   0.000013  -0.000000  -0.000000
     5  C   -0.000007  -0.000003   0.000003  -0.000146   0.000000   0.000000
     6  O    0.000032  -0.000021   0.000003  -0.000021   0.000000   0.000000
     7  C    0.000001  -0.000000  -0.000000   0.000000   0.000000   0.000000
     8  H    0.000000  -0.000000   0.000000  -0.000000  -0.000000  -0.000000
     9  H   -0.000000  -0.000000   0.000000   0.000000   0.000000   0.000000
    10  H   -0.000000   0.000000  -0.000000  -0.000000  -0.000000  -0.000000
    11  C    0.445143   0.012857  -0.048260   0.002825  -0.000257   0.000011
    12  H    0.009928   0.000221  -0.006007  -0.000063   0.000007   0.000001
    13  H    0.008999   0.000623  -0.012790  -0.000083   0.000009  -0.000006
    14  H   -0.004063  -0.000308   0.013891  -0.000143   0.000001  -0.000000
    15  N    0.000000  -0.000000   0.000000  -0.000000   0.000000   0.000000
    16  O   -0.000000  -0.000000   0.000000  -0.000000   0.000000   0.000000
    17  O   -0.000000  -0.000000   0.000000   0.000000  -0.000000   0.000000
    18  N    0.428953  -0.120455   0.001372   0.192931   0.004681  -0.000112
    19  C    5.071898  -0.043051   0.234326  -0.104588   0.008094   0.000597
    20  C   -0.043051   5.055862   0.292054   0.343482   0.445498   0.005768
    21  C    0.234326   0.292054   5.424867  -0.028533  -0.050686  -0.010896
    22  O   -0.104588   0.343482  -0.028533   7.770572  -0.035629   0.001311
    23  C    0.008094   0.445498  -0.050686  -0.035629   4.397697   0.373376
    24  H    0.000597   0.005768  -0.010896   0.001311   0.373376   0.567565
    25  H    0.000606   0.005080  -0.009521   0.001105   0.374613  -0.012183
    26  H   -0.000749  -0.010094   0.016112  -0.000697   0.356654  -0.014678
    27  C    0.000017  -0.000009   0.000002   0.000218  -0.000004  -0.000000
    28  H   -0.000003  -0.000005   0.000002  -0.000005  -0.000001  -0.000000
    29  H   -0.000052   0.000021  -0.000003  -0.000369   0.000002  -0.000000
    30  H    0.000000   0.000000  -0.000000   0.000003   0.000000  -0.000000
    31  N   -0.029031  -0.030913   0.298095   0.002034  -0.006036  -0.000162
    32  O   -0.025286   0.003172  -0.061260  -0.000021   0.000181  -0.000013
    33  O    0.003213  -0.028172  -0.062978   0.000000   0.015682   0.005247
    34  Cl   0.001563   0.000117  -0.001097  -0.000291   0.000000   0.000000
    35  H   -0.000024  -0.000000   0.000000   0.000001  -0.000000  -0.000000
    36  O   -0.000002   0.000000  -0.000001   0.000005   0.000000  -0.000000
    37  H   -0.000048   0.000000   0.000004   0.000000  -0.000000   0.000000
              25         26         27         28         29         30
     1  Pt   0.000008   0.000361   0.005317   0.000045  -0.006062  -0.000155
     2  N    0.000000  -0.000005  -0.035622   0.002210  -0.008558   0.001048
     3  C   -0.000000   0.000011   0.436550   0.009073  -0.005575   0.007826
     4  C    0.000000  -0.000000   0.012630   0.000484  -0.000258   0.000364
     5  C    0.000000  -0.000001  -0.044563  -0.009703   0.013388  -0.007532
     6  O   -0.000000  -0.000000   0.003136  -0.000076  -0.000202  -0.000069
     7  C   -0.000000   0.000000  -0.000262   0.000007   0.000001   0.000008
     8  H    0.000000  -0.000000  -0.000002  -0.000000  -0.000001  -0.000000
     9  H   -0.000000   0.000000   0.000010  -0.000005  -0.000000   0.000002
    10  H    0.000000   0.000000   0.000009   0.000002  -0.000000  -0.000004
    11  C    0.000008  -0.000002  -0.000000  -0.000000   0.000002   0.000000
    12  H   -0.000003  -0.000000   0.000000  -0.000000   0.000000   0.000000
    13  H    0.000002  -0.000000  -0.000000   0.000000   0.000000  -0.000000
    14  H   -0.000000  -0.000001   0.000001  -0.000000  -0.000004  -0.000000
    15  N   -0.000000   0.000000  -0.007419  -0.000266   0.000040  -0.000038
    16  O   -0.000000  -0.000000   0.014273   0.006641   0.000845   0.004156
    17  O    0.000000  -0.000000   0.000172  -0.000024   0.000005  -0.000018
    18  N   -0.000086   0.000123   0.000031  -0.000007   0.000061   0.000001
    19  C    0.000606  -0.000749   0.000017  -0.000003  -0.000052   0.000000
    20  C    0.005080  -0.010094  -0.000009  -0.000005   0.000021   0.000000
    21  C   -0.009521   0.016112   0.000002   0.000002  -0.000003  -0.000000
    22  O    0.001105  -0.000697   0.000218  -0.000005  -0.000369   0.000003
    23  C    0.374613   0.356654  -0.000004  -0.000001   0.000002   0.000000
    24  H   -0.012183  -0.014678  -0.000000  -0.000000  -0.000000  -0.000000
    25  H    0.559587  -0.013293   0.000000   0.000000   0.000000  -0.000000
    26  H   -0.013293   0.610593   0.000011   0.000016   0.000003  -0.000000
    27  C    0.000000   0.000011   4.404726   0.364264   0.361505   0.366163
    28  H    0.000000   0.000016   0.364264   0.582697  -0.015162  -0.011649
    29  H    0.000000   0.000003   0.361505  -0.015162   0.604345  -0.013603
    30  H   -0.000000  -0.000000   0.366163  -0.011649  -0.013603   0.576545
    31  N   -0.000080   0.000055  -0.000000   0.000000   0.000000  -0.000000
    32  O   -0.000019   0.000006   0.000000   0.000000  -0.000000   0.000000
    33  O    0.004140   0.000726  -0.000000   0.000000  -0.000000   0.000000
    34  Cl   0.000000  -0.000001   0.000016   0.000000  -0.000455  -0.000000
    35  H    0.000000   0.000000  -0.000070   0.000001   0.000076  -0.000017
    36  O   -0.000000   0.000000   0.000517   0.000002  -0.002200  -0.000052
    37  H   -0.000000   0.000000   0.000014  -0.000001   0.000081   0.000010
              31         32         33         34         35         36
     1  Pt  -0.000035   0.000041   0.000084   0.267126  -0.024310   0.176217
     2  N    0.000000  -0.000000  -0.000000  -0.002012   0.000196  -0.002621
     3  C   -0.000000  -0.000000   0.000000  -0.000045   0.000368  -0.001222
     4  C   -0.000000  -0.000000  -0.000000  -0.000001  -0.000006  -0.000023
     5  C    0.000000  -0.000000  -0.000000  -0.000000   0.000023   0.000019
     6  O    0.000000  -0.000000  -0.000000   0.000008  -0.000108  -0.000017
     7  C   -0.000000   0.000000   0.000000   0.000000   0.000000  -0.000000
     8  H    0.000000  -0.000000  -0.000000   0.000000  -0.000001  -0.000000
     9  H    0.000000   0.000000   0.000000  -0.000000  -0.000000   0.000000
    10  H   -0.000000  -0.000000   0.000000  -0.000000   0.000000  -0.000000
    11  C   -0.007583   0.013119   0.000162   0.003402   0.000005   0.000018
    12  H    0.000094   0.002763  -0.000014   0.001260  -0.000000  -0.000000
    13  H   -0.000494   0.008556  -0.000019   0.000171   0.000000   0.000000
[...]
 .00006477,-0.00000315,0.00004255,0.00001495,0.00001156,-0.00000738,0.0
 0000721,-0.00001545,-0.00001379,0.00001219,-0.00001313,0.00000429,0.00
 040965,0.00006457,-0.00048668,-0.00030747,-0.00008155,0.00014130,-0.00
 003110,-0.00003306,-0.00005661,-0.00012326,-0.00021708,0.00006084,0.00
 034102,-0.00021263,-0.00023584,-0.00011364,0.00010339,0.00007234,-0.00
 016890,0.00002478,0.00013705,-0.00242008,0.00049733,-0.00069998,0.0006
 4426,0.00619792,-0.00016834,0.00176896,-0.00557233,-0.00159181,-0.0267
 4864,-0.01231492,-0.05130145,-0.00201386,0.00002816,-0.00160776,-0.001
 06651,0.00161323,0.00052336,-0.00096343,0.00068374,-0.00055426,-0.0004
 8606,0.00132913,0.00004555,0.00041763,0.00037755,-0.00023078,-0.000018
 63,0.00006420,-0.00002403,0.00002122,-0.00002189,-0.00000404,0.0000056
 0,-0.00006256,0.00003154,0.00000451,-0.00001100,-0.00000212,-0.2104772
 4,-0.10198499,-0.18325218,0.03550152,-0.00908371,0.00433035,0.20588092
 ,-0.00021372,0.00002447,-0.00019736,-0.00002225,-0.00002186,0.00002354
 ,-0.00005464,-0.00008095,0.00001834,0.00001873,-0.00013505,-0.00001110
 ,0.00000038,0.00008604,-0.00000332,-0.00004294,0.00008219,0.00001185,0
 .00001811,-0.00001104,-0.00001596,0.00000843,-0.00000110,0.00000191,-0
 .00000117,-0.00000423,-0.00000073,-0.00000303,0.00000529,-0.00000452,-
 0.00058954,-0.00012126,-0.00040227,0.00014468,0.00002863,0.00103978,0.
 00123364,0.00074482,0.00035523,-0.00029812,0.00051638,-0.00008442,-0.0
 0002195,-0.00012741,0.00000274,0.00001526,0.00008193,0.00000252,0.0000
 2086,0.00004854,-0.00001050,0.00046373,0.00036138,0.00110883,0.0018186
 6,-0.00149931,-0.00058952,0.00052128,-0.00641719,-0.00283209,-0.006224
 01,0.01988618,-0.00582807,-0.00066468,0.00110636,0.00012729,0.00406564
 ,-0.00312509,0.00243547,-0.00125547,0.00067005,0.00095871,0.00026701,0
 .00194919,-0.00057857,0.00110173,-0.00009079,0.00079868,0.00000977,0.0
 0001923,0.00001250,-0.00003821,0.00001179,-0.00000642,-0.00001371,-0.0
 0001556,-0.00002972,0.00001068,0.00001097,-0.00000111,-0.08272689,-0.2
 3396964,-0.15990365,-0.03594571,-0.06623942,-0.08154311,0.11832212,0.2
 8616134,0.00061187,0.00045714,0.00043470,0.00014208,0.00015878,-0.0000
 8909,0.00022056,-0.00029593,-0.00010886,0.00016952,-0.00001628,-0.0001
 4200,-0.00017457,0.00002823,0.00014993,-0.00026466,0.00018867,0.000177
 81,-0.00005841,-0.00000964,0.00004790,0.00001279,0.00000652,-0.0000173
 7,-0.00001095,-0.00001803,-0.00001817,0.00001107,-0.00001759,0.0000057
 4,-0.00058981,-0.00061377,0.00007024,-0.00004327,0.00004955,0.00045035
 ,0.00064829,0.00059038,-0.00011374,-0.00006347,0.00017532,-0.00026457,
 0.00034441,-0.00024285,-0.00027770,-0.00010993,0.00012236,0.00009053,-
 0.00017309,0.00003030,0.00016461,-0.00096488,0.00116684,-0.00150221,-0
 .00224229,0.00372319,0.00321437,0.00131961,-0.00906098,-0.00214735,-0.
 04869361,-0.01193997,-0.03554149,-0.00185138,0.00094411,-0.00196332,0.
 00165503,0.00046029,0.00080366,-0.00120223,0.00184252,0.00069705,-0.00
 070378,0.00134185,-0.00079219,0.00014946,-0.00006346,0.00098596,-0.000
 00616,0.00006990,-0.00001867,0.00000242,-0.00001136,-0.00001076,-0.000
 00074,-0.00006998,0.00001722,0.00000919,-0.00000562,-0.00000434,-0.173
 55794,-0.17880544,-0.33990297,-0.00878217,-0.05522589,-0.00892386,0.23
 465272,0.24502073,0.38508496,-0.08282245,0.00751612,0.04738096,-0.0017
 6878,0.00322109,0.00837890,-0.00021028,-0.00231971,0.00055280,0.000023
 43,-0.00020144,-0.00008755,-0.00097080,0.00026256,0.00035946,-0.001574
 11,0.00080880,0.00166170,-0.00035919,0.00010619,0.00004542,0.00000047,
 0.00001332,-0.00001534,-0.00003222,-0.00005735,-0.00002456,0.00000539,
 -0.00010645,0.00008210,0.00009804,0.00014975,-0.00042386,0.00037353,-0
 .00050931,0.00037372,0.00006433,-0.00007980,-0.00020278,-0.00027205,-0
 .00014520,0.00018544,0.00073757,-0.00086727,-0.00067156,-0.00024125,0.
 00038235,0.00016101,-0.00046079,0.00012092,0.00043059,0.00272712,-0.00
 049088,-0.00229100,0.00051385,0.00059516,0.00099716,-0.00023907,0.0000
 9873,0.00029202,0.00023678,-0.00025610,0.00030534,0.00075642,0.0000178
 7,0.00015330,-0.00005638,-0.00002780,0.00003781,-0.00000391,0.00001843
 ,0.00001538,0.00001529,-0.00002208,0.00002773,-0.00003200,-0.00001722,
 0.00001035,0.00005274,0.00018680,0.00014920,-0.00000737,0.00005025,-0.
 00004572,-0.00013773,-0.00001384,0.00000235,0.00006815,0.00001326,-0.0
 0002738,-0.00005035,0.00021465,0.00030097,0.00003973,-0.00015056,-0.00
 013419,0.00002941,-0.00006775,-0.00009835,0.09607590,0.00702093,-0.020
 43702,-0.00429635,-0.00021154,0.01044114,-0.00017454,-0.00111383,-0.00
 036420,0.00100728,-0.00002469,0.00076712,-0.00011056,-0.00009337,0.000
 31443,-0.00009665,0.00321001,0.00003241,-0.00243289,0.00010970,-0.0001
 3395,-0.00014177,-0.00000454,-0.00001850,0.00001206,0.00004126,0.00004
 096,-0.00001315,0.00000651,0.00001813,-0.00002896,-0.00037863,-0.00089
 901,0.00064407,-0.00034437,0.00012695,-0.00009498,0.00011395,0.0001690
 3,0.00035487,0.00078609,0.00000903,0.00022249,-0.00018538,-0.00003277,
 0.00010669,0.00004126,-0.00002815,-0.00002646,0.00001856,0.00000138,0.
 00000007,-0.00036116,0.00042474,0.00000708,0.00000323,-0.00096992,-0.0
 0035682,0.00015194,-0.00020045,0.00006854,-0.00009598,0.00025855,-0.00
 009180,-0.00018778,0.00038003,0.00014276,0.00002160,0.00003182,-0.0000
 2219,0.00000202,0.00000197,-0.00000482,-0.00000006,-0.00000060,0.00002
 263,-0.00000370,0.00001072,0.00002360,-0.00014348,-0.00021150,0.000156
 85,0.00001686,0.00002069,-0.00000381,0.00010722,0.00001726,-0.00000491
 ,-0.00000930,0.00001030,0.00000113,0.00000314,-0.00034126,-0.00016246,
 0.00002236,0.00021282,0.00011704,0.00003510,0.00012774,0.00010297,-0.0
 0975484,0.01037001,0.04900890,-0.00544606,-0.07117280,0.00844792,-0.00
 342131,-0.00012063,0.00025396,0.00280969,-0.00079172,-0.00007726,0.000
 09377,-0.00004224,0.00079695,-0.00037826,-0.00087416,0.00206420,-0.000
 78603,-0.00087597,0.00015429,-0.00015949,-0.00034363,-0.00000928,-0.00
 001378,0.00000791,0.00006591,0.00013307,-0.00000325,-0.00003150,0.0000
 5440,-0.00005024,-0.00000721,0.00094152,-0.00051397,0.00014152,0.00003
 227,-0.00022041,-0.00003242,-0.00005041,-0.00017423,-0.00037878,0.0000
 9525,-0.00052736,-0.00102841,0.00099744,0.00046322,0.00029822,-0.00045
 763,-0.00012467,0.00058507,-0.00014154,-0.00039130,0.00417348,0.000144
 60,-0.00575627,0.00024701,-0.00045545,0.00086386,0.00033250,-0.0000134
 2,0.00031708,-0.00010703,0.00014766,-0.00012937,-0.00047695,0.00013672
 ,-0.00001523,-0.00003645,-0.00001330,-0.00004110,0.00001276,-0.0000138
 4,0.00001135,0.00001223,0.00000998,-0.00001248,0.00002832,0.00002525,0
 .00000108,0.00023035,-0.00015785,0.00010162,-0.00002909,-0.00004568,0.
 00007587,-0.00000032,-0.00000038,-0.00012647,-0.00005564,-0.00009556,-
 0.00001346,0.00036397,-0.00016568,0.00017599,-0.00016481,0.00009261,-0
 .00004502,-0.00014586,0.00001389,-0.00010060,-0.06332156,0.00613505,0.
 07481419,-0.00557304,-0.00540736,-0.00312351,0.00044013,0.00025525,-0.
 00048755,0.00012847,-0.00005653,0.00012361,-0.00001509,0.00002373,0.00
 023701,-0.00017947,-0.00007117,0.00014809,-0.00041931,-0.00007386,0.00
 025783,-0.00007309,-0.00000006,0.00000314,0.00002965,-0.00000578,0.000
 03315,-0.00000632,-0.00003115,0.00000293,-0.00001643,-0.00001586,0.000
 07295,-0.00001596,-0.00011889,-0.00002221,-0.00003475,0.00001037,-0.00
 001463,0.00002660,0.00001124,0.00002051,0.00002468,0.00012213,-0.00004
 886,0.00015465,-0.00002590,-0.00001686,-0.00008488,0.00000553,0.000002
 15,-0.00011667,-0.00002560,0.00005371,-0.00003844,0.00133179,-0.001272
 73,-0.00012868,0.00012926,-0.00017788,-0.00013136,0.00010380,-0.000069
 49,0.00008728,0.00000781,0.00015754,0.00078589,0.00012532,0.00073484,0
 .00004817,-0.00003967,0.00010012,0.00001462,0.00003218,0.00000369,-0.0
 0001459,0.00001191,0.00000658,0.00000338,-0.00000580,-0.00001443,0.000
 14301,0.00006901,-0.00008017,-0.00005802,-0.00000787,0.00002256,-0.000
 01021,-0.00008383,0.00003879,0.00001001,0.00007909,0.00004571,-0.00029
 283,0.00012115,-0.00022121,0.00009943,-0.00006536,0.00007750,0.0001344
 4,0.00000454,0.00013493,-0.00072091,0.00046488,0.00001757,0.20586913,0
 .00180289,0.00246637,-0.00429668,-0.00007436,0.00057702,-0.00052140,0.
 00022062,-0.00007360,-0.00034413,-0.00019128,0.00032683,0.00013478,-0.
 00002323,-0.00022984,0.00010464,-0.00006035,-0.00021655,-0.00004146,-0
 .00006470,0.00001754,0.00000878,0.00001030,-0.00001360,0.00004606,-0.0
 0000325,-0.00003519,-0.00000243,-0.00000765,-0.00000307,0.00003242,0.0
 0009080,-0.00008548,0.00003848,-0.00002714,-0.00001169,-0.00001586,-0.
 00000840,-0.00001387,-0.00001791,0.00004879,0.00001892,0.00004699,0.00
 013790,0.00011434,-0.00012545,-0.00003793,-0.00008925,0.00006581,-0.00
 010172,-0.00007216,0.00008512,0.00057536,-0.00056310,0.00183609,-0.000
 18500,0.00058384,0.00012113,0.00002541,0.00003681,0.00001180,0.0002013
 7,-0.00003222,0.00013584,0.00009030,-0.00032837,0.00012553,0.00006838,
 -0.00000162,0.00000393,-0.00000367,0.00001065,-0.00000267,-0.00000630,
 0.00001893,0.00001372,-0.00000477,-0.00000416,-0.00000320,-0.00001361,
 0.00001720,0.00005236,0.00002343,-0.00002402,0.00002874,-0.00006431,-0
 .00007175,-0.00002862,0.00003737,-0.00009450,-0.00007050,-0.00016713,0
 .00025604,-0.00009030,0.00005760,-0.00013257,0.00000194,0.00007113,-0.
 00005548,0.00005901,0.00013260,-0.00026313,0.00021790,0.23534147,0.305
 96496,-0.00588393,-0.01247901,0.00063196,-0.00003677,-0.00003731,0.000
 82325,0.00038523,-0.00065188,-0.00034765,0.00030607,-0.00000128,-0.000
 39592,-0.00022659,0.00004647,0.00003987,0.00008738,0.00051041,-0.00016
 852,-0.00004313,0.00000238,0.00007183,-0.00000307,0.00001643,-0.000030
 99,-0.00000325,-0.00001393,-0.00001050,0.00002783,-0.00001664,-0.00001
 719,0.00001818,-0.00004862,-0.00007978,0.00000596,0.00001666,0.0000095
 9,-0.00000659,0.00001897,0.00001478,-0.00001616,0.00003786,0.00000830,
 0.00035418,-0.00033068,-0.00026344,-0.00010554,0.00017828,0.00005742,-
 0.00015164,0.00006147,0.00012306,-0.00077812,0.00361129,-0.00168182,-0
 .00008556,-0.00041583,-0.00052051,-0.00011710,0.00018362,-0.00001839,-
 0.00018577,0.00003976,0.00001320,0.00062763,0.00015132,0.00054187,-0.0
 0001635,-0.00002586,0.00004230,0.00000058,0.00000795,0.00000526,0.0000
 0025,-0.00001062,-0.00000605,-0.00000650,-0.00000974,-0.00000477,-0.00
 007855,0.00006651,0.00010230,0.00003177,0.00001980,-0.00003536,0.00002
 716,-0.00000265,-0.00002337,0.00003649,-0.00003677,-0.00000904,-0.0000
 6804,-0.00006965,0.00000766,0.00001835,0.00000734,0.00000406,-0.000000
 23,0.00000724,-0.00003100,0.00061647,-0.00022983,0.00011150,0.04264819
 ,0.06886632,0.06013872,-0.06014720,0.00441592,-0.00935337,0.00341652,-
 0.00118354,0.00297897,0.00032817,0.00054846,-0.00084386,0.00008250,-0.
 00005879,-0.00042790,0.00021339,-0.00003729,-0.00040056,0.00087047,0.0
 0002437,-0.00012016,0.00000249,-0.00003459,-0.00009956,-0.00003772,-0.
 00000040,-0.00003906,0.00000565,0.00005844,-0.00001513,0.00000986,-0.0
 0000269,-0.00005433,0.00012775,0.00029807,-0.00009651,0.00010112,-0.00
 007784,0.00004832,0.00002300,0.00002742,0.00003435,-0.00014938,-0.0001
 0346,-0.00002857,-0.00024638,0.00026754,-0.00014876,0.00009455,-0.0001
 3894,0.00006992,0.00014563,-0.00004003,-0.00000526,0.00393150,0.002769
 45,-0.00950142,0.00137956,-0.00223868,-0.00057042,0.00018513,-0.000187
 57,0.00014074,-0.00111556,-0.00015163,-0.00034630,-0.00138021,0.001153
 06,-0.00260018,-0.00057060,-0.00001258,0.00003494,-0.00000101,-0.00004
 510,0.00003360,0.00004485,-0.00012718,-0.00013240,0.00000919,0.0000181
 2,0.00000527,0.00015893,0.00000522,0.00036156,-0.00002793,-0.00003274,
 0.00007703,-0.00018899,-0.00002557,-0.00020399,0.00013848,-0.00028503,
 -0.00022802,0.00084631,-0.00086701,0.00090139,-0.00032051,0.00037083,-
 0.00020241,-0.00044277,0.00009429,-0.00054651,-0.01581521,0.00268563,-
 0.00783449,-0.18486866,-0.24012492,-0.05669939,0.46908490,-0.00026684,
 -0.03539864,0.00666567,-0.00000842,0.00026307,0.00060793,0.00011880,-0
 .00065786,0.00002312,0.00008416,-0.00014375,-0.00008917,-0.00006346,0.
 00012954,0.00006716,-0.00012913,0.00031478,-0.00003566,-0.00001658,0.0
 0000866,0.00002968,0.00000048,0.00000818,-0.00001749,0.00000211,-0.000
 00482,-0.00000081,0.00000494,-0.00001172,-0.00000728,-0.00001558,-0.00
 025744,-0.00020658,0.00000074,-0.00000479,0.00001517,0.00001380,0.0000
 3124,0.00002114,0.00011100,0.00015534,-0.00005751,0.00006018,-0.000291
 09,0.00001325,-0.00001273,0.00017023,-0.00004157,-0.00000421,0.0000925
 3,-0.00001636,-0.00208459,0.01469539,-0.00254078,-0.00050270,-0.000693
 12,-0.00147015,-0.00053556,0.00110550,0.00003354,-0.00044125,0.0000451
 8,0.00009265,0.00361230,0.00032414,0.00367041,0.00011448,-0.00016681,0
 .00015869,0.00003978,0.00005017,0.00002917,0.00000356,0.00000108,0.000
 03469,-0.00000857,-0.00002995,-0.00001798,-0.00027627,-0.00006499,-0.0
 0000659,0.00006353,0.00007122,-0.00008497,0.00027548,-0.00006933,0.000
 00032,-0.00009574,0.00007682,0.00010273,-0.00019695,-0.00017233,-0.000
 00897,0.00004053,0.00000421,0.00001782,0.00001338,0.00001818,-0.000057
 85,0.00195052,0.00251410,0.00054354,-0.20882276,-0.30590376,-0.0864019
 8,0.23882338,0.35515839,-0.02579942,0.01984289,-0.06328958,-0.00091199
 ,-0.00007191,-0.00283439,-0.00061526,0.00079230,0.00062199,-0.00028993
 ,-0.00001421,0.00013671,0.00026310,0.00000342,-0.00015831,0.00033351,-
 0.00038457,-0.00005537,0.00009301,-0.00000360,-0.00005332,-0.00002860,
 -0.00001629,-0.00001030,-0.00001552,0.00003021,0.00001072,-0.00001336,
 0.00001252,-0.00002187,-0.00005715,0.00012968,0.00029311,0.00001136,0.
 00012636,-0.00003592,0.00002539,0.00003257,0.00011212,-0.00006983,0.00
 005006,-0.00013028,-0.00039982,0.00035110,0.00017008,0.00015068,-0.000
 19065,-0.00002335,0.00018273,-0.00006810,-0.00009676,-0.00757930,0.000
 36660,-0.00257089,0.00081346,-0.00355898,-0.00169664,0.00045024,-0.000
 57042,0.00009004,-0.00102282,0.00056029,-0.00096732,-0.00307022,0.0012
 1222,-0.00252998,-0.00035768,0.00018940,-0.00029580,-0.00004302,-0.000
 14278,-0.00001803,0.00005362,-0.00007384,-0.00011037,0.00001860,0.0000
 2797,0.00001267,0.00004089,-0.00026340,0.00010636,-0.00003505,0.000015
 36,0.00002329,0.00004933,-0.00000087,-0.00033928,0.00002762,-0.0000034
 3,-0.00012365,0.00128089,-0.00109044,0.00065526,-0.00041440,0.00050609
 ,-0.00014032,-0.00064257,0.00012475,-0.00055256,0.00594232,-0.00109378
 ,0.00610741,-0.03206516,-0.06330710,-0.06752440,-0.13049126,0.07099251
 ,0.40627860,0.01355948,0.00182206,-0.00841519,-0.00117018,0.00054830,0
 .00030483,-0.00027472,-0.00036619,0.00052375,-0.00000440,-0.00011906,0
 .00015396,-0.00014679,0.00013665,0.00008413,-0.00054787,0.00001267,0.0
 0035311,-0.00004165,0.00002859,0.00001581,0.00001358,0.00000239,0.0000
 1322,-0.00000527,-0.00001864,0.00000604,-0.00000797,-0.00000810,0.0000
 2927,-0.00001829,-0.00012404,0.00014487,-0.00012617,0.00016425,-0.0001
 0047,-0.00000033,0.00003578,0.00009284,0.00013910,0.00013138,-0.000075
 55,0.00006573,-0.00016798,0.00003536,-0.00002594,0.00008188,-0.0000338
 5,-0.00005299,0.00003353,0.00001365,-0.00207380,-0.00026155,-0.0008856
 1,0.00009429,-0.00044099,-0.00088041,0.00002074,-0.00020557,-0.0001907
 6,-0.00013903,0.00012143,-0.00008059,-0.00047978,0.00018441,-0.0003427
 2,-0.00001609,0.00003222,-0.00001860,-0.00000439,-0.00001346,-0.000012
 16,-0.00000743,-0.00000312,-0.00002360,0.00000779,0.00000194,-0.000007
 59,-0.00009572,-0.00003110,-0.00009600,0.00003676,0.00003535,-0.000054
 40,0.00014646,0.00006762,0.00007155,-0.00005145,0.00009740,0.00008932,
 -0.00002934,-0.00012431,-0.00015387,0.00000678,0.00006963,0.00007512,0
 .00000903,0.00004423,0.00005425,0.00395655,-0.00194945,0.00650216,-0.0
 1520076,0.00223395,0.01932066,-0.21588802,-0.03185149,0.19418536,0.218
 35213,-0.00025876,0.00140747,0.00424738,0.00009247,-0.00027802,-0.0000
 1465,-0.00020870,0.00044426,0.00011567,-0.00001994,0.00003329,-0.00001
 949,0.00011668,-0.00005354,-0.00004841,0.00010669,-0.00018251,-0.00005
 376,0.00002716,-0.00001187,-0.00002446,-0.00000153,-0.00000226,0.00000
 470,-0.00000050,0.00001177,0.00000002,-0.00000365,0.00001247,-0.000002
 43,0.00005649,-0.00000088,0.00000065,0.00001086,-0.00001218,0.00001476
 ,0.00000877,-0.00000495,0.00000194,-0.00004082,-0.00003962,0.00010824,
 -0.00013313,0.00024593,0.00004873,0.00003926,-0.00013324,0.00000658,0.
 00005437,-0.00006202,-0.00002877,0.00035610,0.00044740,-0.00004238,0.0
 0000125,-0.00015031,0.00011469,-0.00000812,0.00006880,0.00005837,-0.00
 004010,-0.00003477,-0.00009596,-0.00004847,-0.00000263,-0.00021593,-0.
 00006779,-0.00000969,0.00000098,0.00000348,-0.00001008,0.00000487,0.00
 000570,-0.00000895,-0.00001945,0.00000877,0.00000559,-0.00000878,0.000
 12896,-0.00009343,0.00000296,-0.00002372,-0.00002119,0.00002516,-0.000
 04404,0.00006993,-0.00024578,0.00001708,0.00001365,-0.00003928,0.00013
 380,-0.00001595,0.00012685,-0.00004510,-0.00000292,-0.00004515,-0.0000
 7373,-0.00002534,-0.00008402,-0.00077169,-0.00240079,-0.00080898,-0.02
 339300,-0.00209044,0.02693222,-0.00578453,-0.03136742,-0.02451184,0.02
 979939,0.03425441,0.00465659,0.00012766,-0.02158393,-0.00029822,0.0002
 5104,-0.00026960,0.00019827,-0.00029779,-0.00020443,0.00006096,0.00006
 113,-0.00010704,-0.00013818,-0.00002184,0.00013346,-0.00015003,0.00015
 832,0.00009714,-0.00004696,0.00000727,0.00005773,0.00000302,0.00000719
 ,-0.00000848,-0.00000113,-0.00002034,-0.00000625,0.00001539,-0.0000142
 6,-0.00000073,-0.00003022,-0.00005678,-0.00001039,0.00000315,0.0000085
 4,0.00000638,-0.00000293,-0.00000602,-0.00001287,-0.00002394,0.0000725
 9,0.00000705,0.00031233,-0.00021982,-0.00020343,-0.00010428,0.00010812
 ,0.00006000,-0.00015321,0.00002777,0.00011513,-0.00166107,0.00002076,0
 .00127309,-0.00042397,0.00022917,0.00006943,-0.00006147,0.00003604,-0.
 00000788,0.00022156,0.00010701,0.00008195,0.00037833,-0.00014029,0.000
 65040,0.00012790,0.00001243,0.00000988,-0.00000744,0.00001523,-0.00000
 689,-0.00001257,0.00002551,0.00003048,-0.00001154,-0.00001077,-0.00000
 033,0.00002485,0.00008569,0.00000258,-0.00000385,-0.00001595,0.0000118
 2,-0.00001764,-0.00012499,-0.00003440,0.00001769,-0.00004133,-0.000005
 19,-0.00025437,0.00019962,-0.00023383,0.00010490,-0.00009838,0.0000511
 8,0.00011899,-0.00002158,0.00012781,-0.00111802,0.00026134,-0.00058486
 ,-0.00732834,-0.00316976,0.00842186,0.21630338,0.00794275,-0.27103976,
 -0.21069788,-0.00550526,0.28311309\\-0.00000177,0.00000531,0.00001896,
 0.00000702,-0.00001762,-0.00000421,-0.00000213,0.00000583,-0.00000369,
 0.00000214,-0.00000686,-0.00001207,0.00000211,0.00000822,0.00000670,-0
 .00000126,0.00000318,0.00000872,-0.00000110,-0.00000054,0.00000107,0.0
 0000042,-0.00000137,-0.00000057,0.00000071,-0.00000075,-0.00000124,0.0
 0000087,-0.00000072,-0.00000080,-0.00000056,0.00000122,-0.00000131,0.0
 0000003,0.00000024,-0.00000027,0.00000021,-0.00000065,-0.00000089,-0.0
 0000056,0.00000037,0.00000012,-0.00000076,-0.00000517,-0.00000807,-0.0
 0000046,-0.00000013,0.00000473,-0.00000049,0.00000412,0.00000475,-0.00
 000308,-0.00000361,-0.00000480,0.00000470,-0.00000157,0.00000188,0.000
 00613,-0.00000100,0.00000308,-0.00000476,0.00000177,0.00000158,-0.0000
 0518,0.00000368,-0.00000139,-0.00000030,-0.00000080,-0.00000038,-0.000
 00061,0.00000004,0.00000051,-0.00000024,-0.00000032,0.00000061,-0.0000
 0011,-0.00000008,0.00000063,-0.00000295,-0.00000112,-0.00000107,0.0000
 0029,0.00000077,0.00000133,-0.00000002,0.00000066,0.00000114,-0.000000
 52,0.00000011,0.00000237,0.00000802,0.00000435,-0.00001009,-0.00000206
 ,-0.00000256,0.00000216,-0.00000193,-0.00000136,0.00000342,0.00000318,
 0.00000078,-0.00000280,0.00000508,0.00000658,0.00000660,-0.00001054,-0
 .00000271,-0.00002058,0.00000045,0.00000172,0.00000388\\\@


 IF NO USE IS MADE OF THE LABOR OF PAST AGES,
 THE WORLD MUST REMAIN ALWAYS IN THE INFANCY OF KNOWLEDGE.

                          -- CICERO
 Job cpu time:       0 days  3 hours 30 minutes  4.3 seconds.
 Elapsed time:       0 days  0 hours  4 minutes 29.6 seconds.
 File lengths (MBytes):  RWF=    746 Int=      0 D2E=      0 Chk=     15 Scr=      1
 Normal termination of Gaussian 16 at Sat Aug  2 11:31:03 2025.
